/*--------------------------------*- C++ -*----------------------------------*\
  =========                 |
  \\      /  F ield         | OpenFOAM: The Open Source CFD Toolbox
   \\    /   O peration     | Website:  https://openfoam.org
    \\  /    A nd           | Version:  7
     \\/     M anipulation  |
\*---------------------------------------------------------------------------*/
FoamFile
{
    version     2.0;
    format      ascii;
    class       volScalarField;
    location    "0.07";
    object      nut;
}
// * * * * * * * * * * * * * * * * * * * * * * * * * * * * * * * * * * * * * //

dimensions      [0 2 -1 0 0 0 0];

internalField   nonuniform List<scalar> 
77308
(
0.0006090869
0.0005775718
0.0005752075
0.000574396
0.0005742532
0.0005742738
0.001320449
0.001274961
0.001260643
0.001256984
0.001256034
0.001255832
0.001306436
0.001248325
0.001230335
0.001225435
0.001224092
0.001223824
0.001300483
0.001238371
0.001217842
0.001212133
0.001210524
0.001210137
0.001299061
0.001235693
0.001214328
0.001208197
0.001206418
0.001205968
0.00129869
0.001234972
0.001213342
0.001207047
0.00120519
0.001204709
0.001298625
0.001234876
0.00121322
0.001206907
0.00120504
0.001204555
0.001298808
0.001235289
0.001213813
0.001207617
0.001205808
0.001205345
0.00129948
0.001236688
0.001215732
0.001209845
0.001208183
0.001207771
0.001301885
0.001241324
0.001221745
0.001216537
0.001215143
0.00121482
0.001311667
0.001258072
0.001242364
0.001238432
0.001237445
0.001237242
0.001341764
0.001311905
0.001302735
0.001300656
0.001300127
0.001300042
0.0006404914
0.0006162983
0.0006135309
0.0006132729
0.0006132785
0.0006133551
0.0001365927
0.0001366011
0.000136663
0.000136728
0.0001367959
0.0001368674
0.0006742145
0.0006652489
0.0006642054
0.0006642082
0.0006643622
0.0006646057
0.001343507
0.001313137
0.001303851
0.001301796
0.001301346
0.001301338
0.001316117
0.00126258
0.001247008
0.001243178
0.001242284
0.001242194
0.001306351
0.00124608
0.001226634
0.001221595
0.001220336
0.001220147
0.001303394
0.001240846
0.001220037
0.001214289
0.001212766
0.001212519
0.001302355
0.001239084
0.001217751
0.001211726
0.001210099
0.001209827
0.001301702
0.001238171
0.001216654
0.001210513
0.001208852
0.001208592
0.001301299
0.001237764
0.00121626
0.001210143
0.001208519
0.001208298
0.001301081
0.001237767
0.00121646
0.001210495
0.001208978
0.001208828
0.001301313
0.001238701
0.001217927
0.001212321
0.001211019
0.001210987
0.0001006918
0.0001006917
0.0001006917
0.0001006917
0.0001006918
0.0001006918
0.0006123135
0.0001007221
0.0001007212
0.0001007211
0.0001007211
0.0001007212
0.0001007213
0.0006041057
0.0001007218
0.0001007207
0.0001007206
0.0001007207
0.0001007208
0.0001007208
0.0005997595
0.0001007217
0.0001007206
0.0001007206
0.0001007207
0.0001007208
0.0001007209
0.0005988345
0.0001007217
0.0001007207
0.0001007207
0.0001007208
0.0001007209
0.0001007209
0.0005986744
0.0001007217
0.0001007207
0.0001007207
0.0001007208
0.0001007209
0.000100721
0.0005986155
0.0001007217
0.0001007207
0.0001007207
0.0001007208
0.0001007209
0.000100721
0.0005985854
0.0001007217
0.0001007207
0.0001007206
0.0001007208
0.0001007209
0.000100721
0.0005985791
0.0001007216
0.0001007206
0.0001007205
0.0001007207
0.0001007215
0.0001007217
0.0005986409
0.0001007216
0.0001007205
0.0001007205
0.0001007211
0.0001007217
0.0001007219
0.0005990362
0.0001007216
0.0001007205
0.0001007239
0.0001007247
0.0001007257
0.0001007264
0.0006023196
0.000100722
0.0001007261
0.0001007275
0.0001007283
0.0001007288
0.0001007293
0.0006101844
0.0001006916
0.0001006917
0.0001006917
0.0001006917
0.0001006918
0.0001006918
0.0003206059
0.0003101849
0.000305317
0.0003037946
0.0003035806
0.0003036581
0.0002269981
0.0001008025
0.0001005603
0.0001004709
0.0001005158
0.0001004666
0.000100434
0.0006132951
0.0001012014
0.0001017335
0.0001018134
0.0001017864
0.0001017695
0.0001017101
0.0006053877
0.0001007588
0.0001008719
0.0001008794
0.0001008465
0.0001008337
0.0001008429
0.0006041836
0.0001008446
0.0001008583
0.0001008339
0.000100828
0.0001008265
0.0001008272
0.000603531
0.0001007691
0.0001007722
0.0001007498
0.0001007525
0.0001007465
0.0001007535
0.0006030252
0.0001007795
0.0001007866
0.0001007522
0.0001007559
0.000100744
0.000100748
0.0006025263
0.0001007842
0.0001007828
0.000100744
0.0001007451
0.0001007385
0.0001007379
0.0006020379
0.0001007952
0.0001007871
0.0001007471
0.0001007453
0.0001007387
0.0001007381
0.0006015535
0.0001007994
0.0001007886
0.0001007481
0.0001007452
0.0001007411
0.0001007409
0.0001012628
0.0001008009
0.0001007864
0.0001007446
0.0001007428
0.0001007434
0.000100744
0.0001006918
0.0001006914
0.0001006914
0.0001006914
0.0001006914
0.0001006915
0.0006072406
0.0001006915
0.0001006914
0.0001006914
0.0001006914
0.0001006915
0.0001006915
0.001286397
0.0001007225
0.0001006914
0.0001006914
0.0001006914
0.0001006915
0.0001006915
0.001266047
0.0001007221
0.0001006914
0.0001006914
0.0001006915
0.0001006915
0.0001006915
0.001258704
0.000100722
0.0001006914
0.0001006914
0.0001006915
0.0001006915
0.0001006916
0.001257016
0.000100722
0.0001006914
0.0001006914
0.0001006915
0.0001006915
0.0001006916
0.001256694
0.000100722
0.0001006914
0.0001006914
0.0001006915
0.0001006915
0.0001006916
0.001256858
0.000100722
0.0001006914
0.0001006915
0.0001006915
0.0001006915
0.0001006916
0.001257612
0.000100722
0.0001006914
0.0001006915
0.0001006915
0.0001006915
0.0001006916
0.001260085
0.0001007219
0.0001006914
0.0001006914
0.0001006915
0.0001006915
0.0001006916
0.00126921
0.0001007218
0.0001006915
0.0001006915
0.0001006915
0.0001006916
0.0001006917
0.001293527
0.0001007223
0.0001007794
0.0001007805
0.0001007892
0.0001007944
0.000100801
0.0006034295
0.0001006919
0.001636091
0.001523062
0.00148833
0.001479652
0.001478309
0.0003105804
0.0002271505
0.0001004861
0.0001007356
0.0001008674
0.0001007615
0.0001007656
0.0001007817
0.001302638
0.0001019981
0.0001007172
0.0001006783
0.0001006939
0.0001006878
0.0001006875
0.001275128
0.0001012257
0.0001007022
0.0001007056
0.0001007037
0.0001007002
0.0001006991
0.001264925
0.0001013405
0.0001007058
0.0001007013
0.0001007014
0.0001006992
0.0001007001
0.001261656
0.0001012638
0.000100712
0.0001007078
0.0001007074
0.0001007075
0.0001007046
0.001260461
0.0001013233
0.0001007101
0.0001007073
0.0001007065
0.0001007062
0.0001007043
0.00125972
0.0001013437
0.0001007129
0.000100709
0.0001007091
0.0001007086
0.0001007078
0.001259335
0.000101383
0.0001007138
0.0001007095
0.0001007094
0.0001007091
0.0001007085
0.001259314
0.0001014055
0.0001007159
0.0001007114
0.0001007116
0.0001007116
0.0001007114
0.001260657
0.0001014386
0.0001007175
0.000100713
0.0001007135
0.0001007142
0.0001007147
0.0001006918
0.0001006914
0.0001006914
0.0001006914
0.0001006914
0.0001006915
0.0006032086
0.0001006915
0.0001006914
0.0001006914
0.0001006914
0.0001006915
0.0001006915
0.001267055
0.0001007222
0.0001006914
0.0001006914
0.0001006914
0.0001006915
0.0001006915
0.001232444
0.0001007214
0.0001006914
0.0001006914
0.0001006915
0.0001006915
0.0001006915
0.001221508
0.0001007212
0.0001006914
0.0001006914
0.0001006915
0.0001006915
0.0001006916
0.00121884
0.0001007212
0.0001006914
0.0001006914
0.0001006915
0.0001006915
0.0001006916
0.001218315
0.0001007212
0.0001006914
0.0001006914
0.0001006915
0.0001006915
0.0001006916
0.001218545
0.0001007212
0.0001006914
0.0001006915
0.0001006915
0.0001006915
0.0001006916
0.001219667
0.0001007211
0.0001006914
0.0001006915
0.0001006915
0.0001006915
0.0001006916
0.001223385
0.000100721
0.0001006914
0.0001006914
0.0001006915
0.0001006915
0.0001006916
0.001236599
0.0001007209
0.0001006915
0.0001006915
0.0001006915
0.0001006916
0.0001006916
0.001275886
0.0001007219
0.000100767
0.0001007683
0.0001007786
0.0001007838
0.00010079
0.0005858856
0.0001006919
0.001523409
0.001385406
0.001334376
0.001320544
0.001317469
0.0003056599
0.0002270184
0.0001004517
0.0001007462
0.0001008846
0.0001008057
0.0001007734
0.0001007622
0.001285471
0.0001022033
0.0001007103
0.0001006862
0.0001006819
0.0001006845
0.0001006874
0.001242809
0.0001013109
0.0001007155
0.0001006953
0.0001007126
0.0001006985
0.0001006997
0.001228491
0.0001013232
0.0001007026
0.0001007
0.0001006995
0.0001007005
0.0001006993
0.001223853
0.0001012698
0.0001007144
0.0001007059
0.0001007098
0.0001007069
0.000100705
0.001222216
0.0001013165
0.000100712
0.0001007055
0.0001007077
0.0001007058
0.0001007047
0.00122134
0.000101338
0.0001007136
0.0001007087
0.0001007092
0.0001007084
0.0001007078
0.00122095
0.0001013774
0.0001007139
0.0001007093
0.0001007095
0.0001007091
0.0001007085
0.001221159
0.000101391
0.0001007158
0.0001007113
0.0001007116
0.0001007116
0.0001007114
0.001223495
0.0001014239
0.0001007172
0.0001007129
0.0001007135
0.0001007143
0.0001007148
0.0001006918
0.0001006914
0.0001006914
0.0001006914
0.0001006914
0.0001006915
0.000602314
0.0001006915
0.0001006914
0.0001006914
0.0001006914
0.0001006915
0.0001006915
0.001260217
0.0001007221
0.0001006914
0.0001006914
0.0001006914
0.0001006915
0.0001006915
0.001222218
0.0001007212
0.0001006914
0.0001006914
0.0001006915
0.0001006915
0.0001006915
0.001209236
0.000100721
0.0001006914
0.0001006914
0.0001006915
0.0001006915
0.0001006916
0.001206097
0.000100721
0.0001006914
0.0001006914
0.0001006915
0.0001006915
0.0001006916
0.001205485
0.000100721
0.0001006914
0.0001006914
0.0001006915
0.0001006915
0.0001006916
0.001205754
0.000100721
0.0001006914
0.0001006915
0.0001006915
0.0001006915
0.0001006916
0.001207059
0.0001007209
0.0001006914
0.0001006915
0.0001006915
0.0001006915
0.0001006916
0.001211397
0.0001007208
0.0001006914
0.0001006914
0.0001006915
0.0001006915
0.0001006916
0.001226883
0.0001007207
0.0001006914
0.0001006915
0.0001006915
0.0001006916
0.0001006916
0.001269746
0.0001007218
0.0001007641
0.0001007647
0.000100776
0.0001007809
0.0001007873
0.0005836961
0.0001006919
0.001490682
0.001337447
0.00127998
0.001263991
0.00126026
0.0003041151
0.0002270031
0.0001004724
0.0001008987
0.0001007899
0.0001007917
0.0001007696
0.0001007544
0.001279198
0.000102337
0.0001006886
0.0001006853
0.0001006711
0.0001006762
0.0001006749
0.001233183
0.000101348
0.0001007068
0.0001007114
0.0001006985
0.0001007118
0.0001006987
0.001216481
0.0001013634
0.0001007059
0.0001006985
0.0001007004
0.000100699
0.0001007005
0.001211214
0.0001012566
0.0001007102
0.0001007118
0.0001007052
0.0001007088
0.0001007043
0.001209384
0.000101304
0.0001007092
0.0001007078
0.0001007054
0.0001007073
0.0001007043
0.001208436
0.0001013211
0.0001007119
0.0001007096
0.0001007089
0.000100709
0.0001007076
0.001208081
0.0001013602
0.0001007132
0.0001007101
0.0001007094
0.0001007093
0.0001007085
0.001208397
0.0001013817
0.0001007156
0.0001007116
0.0001007115
0.0001007117
0.0001007114
0.001211222
0.0001014146
0.000100717
0.0001007131
0.0001007135
0.0001007144
0.000100715
0.0001006918
0.0001006914
0.0001006914
0.0001006914
0.0001006914
0.0001006915
0.0006022173
0.0001006915
0.0001006914
0.0001006914
0.0001006914
0.0001006915
0.0001006915
0.001260199
0.0001007221
0.0001006914
0.0001006914
0.0001006914
0.0001006915
0.0001006915
0.001222207
0.0001007212
0.0001006914
0.0001006914
0.0001006915
0.0001006915
0.0001006915
0.001209242
0.000100721
0.0001006914
0.0001006914
0.0001006915
0.0001006915
0.0001006916
0.001206123
0.000100721
0.0001006914
0.0001006914
0.0001006915
0.0001006915
0.0001006916
0.001205526
0.000100721
0.0001006914
0.0001006914
0.0001006915
0.0001006915
0.0001006916
0.001205793
0.000100721
0.0001006914
0.0001006915
0.0001006915
0.0001006915
0.0001006916
0.001207092
0.0001007209
0.0001006914
0.0001006915
0.0001006915
0.0001006915
0.0001006916
0.001211436
0.0001007208
0.0001006914
0.0001006914
0.0001006915
0.0001006915
0.0001006916
0.00122693
0.0001007207
0.0001006914
0.0001006915
0.0001006915
0.0001006916
0.0001006916
0.001269778
0.0001007218
0.0001007641
0.0001007647
0.0001007759
0.0001007809
0.0001007873
0.0005835157
0.0001006919
0.001490674
0.001337441
0.001279977
0.001263987
0.001260252
0.0003039419
0.0002271997
0.0001009301
0.0001008939
0.0001007911
0.0001007914
0.0001007709
0.0001007544
0.001279218
0.0001023419
0.0001006888
0.0001006844
0.0001006711
0.0001006759
0.0001006752
0.001233216
0.0001013453
0.0001007068
0.0001007117
0.0001006984
0.0001007124
0.0001006986
0.001216505
0.0001013626
0.000100706
0.0001006984
0.0001007004
0.000100699
0.0001007005
0.001211229
0.0001012567
0.0001007102
0.0001007119
0.0001007051
0.0001007089
0.0001007043
0.001209401
0.000101303
0.0001007092
0.0001007078
0.0001007054
0.0001007073
0.0001007044
0.001208448
0.0001013213
0.0001007119
0.0001007096
0.000100709
0.000100709
0.0001007076
0.001208085
0.00010136
0.0001007132
0.0001007101
0.0001007094
0.0001007093
0.0001007085
0.001208396
0.000101382
0.0001007156
0.0001007116
0.0001007115
0.0001007117
0.0001007114
0.001211215
0.0001014148
0.000100717
0.0001007131
0.0001007136
0.0001007144
0.0001007149
0.0001006918
0.0001006914
0.0001006914
0.0001006914
0.0001006914
0.0001006915
0.0006025148
0.0001006915
0.0001006914
0.0001006914
0.0001006914
0.0001006915
0.0001006915
0.00126699
0.0001007223
0.0001006914
0.0001006914
0.0001006914
0.0001006915
0.0001006915
0.001232417
0.0001007214
0.0001006914
0.0001006914
0.0001006915
0.0001006915
0.0001006915
0.001221543
0.0001007212
0.0001006914
0.0001006914
0.0001006915
0.0001006915
0.0001006916
0.001218975
0.0001007212
0.0001006914
0.0001006914
0.0001006915
0.0001006915
0.0001006916
0.001218536
0.0001007212
0.0001006914
0.0001006914
0.0001006915
0.0001006915
0.0001006916
0.00121874
0.0001007212
0.0001006914
0.0001006915
0.0001006915
0.0001006915
0.0001006916
0.001219812
0.0001007211
0.0001006914
0.0001006915
0.0001006915
0.0001006915
0.0001006916
0.001223579
0.000100721
0.0001006914
0.0001006914
0.0001006915
0.0001006915
0.0001006916
0.00123686
0.000100721
0.0001006915
0.0001006915
0.0001006915
0.0001006916
0.0001006916
0.001276084
0.0001007219
0.000100767
0.0001007683
0.0001007786
0.0001007838
0.00010079
0.0005840485
0.0001006919
0.001523365
0.00138537
0.001334349
0.001320514
0.001317428
0.0003045552
0.000227252
0.0001007181
0.0001007448
0.0001008856
0.0001008099
0.0001007729
0.0001007616
0.001285637
0.0001022006
0.0001007104
0.000100686
0.0001006821
0.0001006844
0.0001006874
0.001243021
0.000101309
0.0001007164
0.0001006952
0.0001007124
0.0001006984
0.0001006997
0.001228615
0.0001013248
0.0001007026
0.0001007
0.0001006995
0.0001007006
0.0001006994
0.001223929
0.0001012708
0.0001007145
0.0001007059
0.0001007097
0.0001007069
0.000100705
0.00122229
0.0001013166
0.0001007121
0.0001007055
0.0001007077
0.0001007058
0.0001007047
0.001221399
0.0001013382
0.0001007136
0.0001007087
0.0001007092
0.0001007084
0.0001007079
0.001220976
0.000101377
0.000100714
0.0001007093
0.0001007095
0.0001007091
0.0001007085
0.00122116
0.000101391
0.0001007159
0.0001007113
0.0001007116
0.0001007116
0.0001007114
0.00122348
0.000101424
0.0001007172
0.0001007129
0.0001007134
0.0001007142
0.0001007148
0.0001006918
0.0001006914
0.0001006914
0.0001006914
0.0001006915
0.0001006915
0.0006051553
0.0001006915
0.0001006914
0.0001006914
0.0001006914
0.0001006915
0.0001006915
0.001286337
0.0001007226
0.0001006914
0.0001006914
0.0001006914
0.0001006915
0.0001006915
0.001266054
0.0001007221
0.0001006914
0.0001006914
0.0001006915
0.0001006915
0.0001006915
0.001258831
0.000100722
0.0001006914
0.0001006914
0.0001006915
0.0001006915
0.0001006916
0.001257572
0.000100722
0.0001006914
0.0001006914
0.0001006915
0.0001006915
0.0001006916
0.001257808
0.0001007221
0.0001006914
0.0001006914
0.0001006915
0.0001006915
0.0001006916
0.001257634
0.000100722
0.0001006914
0.0001006915
0.0001006915
0.0001006915
0.0001006916
0.001258017
0.000100722
0.0001006914
0.0001006915
0.0001006915
0.0001006915
0.0001006916
0.001260877
0.0001007219
0.0001006914
0.0001006915
0.0001006915
0.0001006915
0.0001006916
0.001270436
0.0001007218
0.0001006915
0.0001006915
0.0001006915
0.0001006916
0.0001006917
0.001294598
0.0001007223
0.0001007793
0.0001007805
0.0001007891
0.0001007943
0.0001008009
0.0005893591
0.0001006919
0.001635846
0.001522929
0.001488251
0.001479543
0.00147814
0.0003069903
0.0002273858
0.0001007221
0.000100735
0.0001008715
0.0001007573
0.0001007692
0.0001007747
0.001303525
0.0001019942
0.0001007161
0.0001006773
0.0001006928
0.0001006868
0.0001006878
0.001276136
0.0001012243
0.0001007022
0.0001007057
0.0001007041
0.0001007004
0.000100699
0.001265342
0.0001013431
0.0001007058
0.0001007014
0.0001007013
0.0001006992
0.0001007002
0.001261859
0.0001012647
0.0001007119
0.0001007078
0.0001007077
0.0001007072
0.0001007045
0.001260782
0.0001013262
0.00010071
0.0001007072
0.0001007066
0.0001007061
0.0001007043
0.001259991
0.0001013444
0.000100713
0.000100709
0.0001007091
0.0001007086
0.0001007078
0.001259422
0.0001013831
0.0001007138
0.0001007096
0.0001007095
0.0001007091
0.0001007085
0.001259328
0.0001014055
0.0001007159
0.0001007114
0.0001007115
0.0001007116
0.0001007114
0.001260644
0.0001014377
0.0001007175
0.0001007131
0.0001007137
0.0001007144
0.0001007147
0.0001006918
0.0001006918
0.0001006918
0.0001006919
0.0001006919
0.000100692
0.0006093557
0.0001007223
0.0001007218
0.0001007217
0.0001007217
0.0001007218
0.0001007218
0.0005952426
0.0001007217
0.0001007207
0.0001007206
0.0001007207
0.0001007207
0.0001007208
0.0005765585
0.0001007216
0.0001007206
0.0001007205
0.0001007206
0.0001007207
0.0001007208
0.0005740102
0.0001007217
0.0001007206
0.0001007206
0.0001007207
0.0001007208
0.0001007209
0.0005740048
0.0001007217
0.0001007207
0.0001007207
0.0001007208
0.0001007209
0.000100721
0.0005763608
0.0001007216
0.0001007207
0.0001007207
0.0001007208
0.0001007209
0.000100721
0.0005754654
0.0001007217
0.0001007206
0.0001007206
0.0001007208
0.0001007211
0.0001007213
0.0005734261
0.0001007216
0.0001007206
0.0001007205
0.0001007209
0.0001007217
0.0001007219
0.0005748035
0.0001007215
0.0001007205
0.0001007207
0.0001007212
0.0001007219
0.0001007221
0.0005769568
0.0001007215
0.0001007205
0.000100724
0.0001007248
0.0001007259
0.0001007265
0.000583501
0.0001007219
0.0001007263
0.0001007276
0.0001007285
0.0001007288
0.0001007294
0.0005972364
0.0001006916
0.0001007832
0.0001007672
0.000100779
0.000100783
0.0001007909
0.0003230122
0.0001981253
0.000194922
0.0001924725
0.0001921624
0.000192198
0.0002272897
0.0001004414
0.0001004849
0.0001006025
0.0001007851
0.0001007963
0.0001009141
0.0006076795
0.0001011935
0.0001017065
0.0001017939
0.0001017756
0.0001017477
0.0001016965
0.0005855391
0.0001007588
0.0001008822
0.0001008863
0.0001008542
0.0001008375
0.0001008526
0.0005802918
0.0001008447
0.0001008621
0.0001008369
0.0001008315
0.000100825
0.0001008305
0.0005786312
0.0001007683
0.0001007734
0.0001007507
0.0001007547
0.0001007439
0.0001007558
0.0005785172
0.0001007775
0.0001007872
0.0001007518
0.0001007582
0.0001007443
0.000100749
0.000578151
0.0001007861
0.0001007801
0.0001007446
0.0001007451
0.0001007385
0.0001007379
0.0005771162
0.0001007961
0.0001007866
0.0001007481
0.0001007465
0.0001007387
0.0001007381
0.0005765267
0.0001008005
0.0001007872
0.0001007478
0.0001007411
0.000100741
0.0001007409
0.0005760886
0.0001008029
0.000100787
0.0001007461
0.0001007429
0.0001007432
0.000100744
0.0001006931
0.0001006931
0.0001006932
0.0001006932
0.0001006933
0.0001006935
0.0002687476
0.00134
0.001310955
0.001301704
0.001299578
0.001299096
0.001299073
0.0002620052
0.001310923
0.001256843
0.001240756
0.001236629
0.001235579
0.001235372
0.0002615759
0.001301617
0.001240676
0.001220833
0.00121548
0.001214026
0.001213687
0.0002614561
0.001299388
0.001236408
0.001215325
0.001209365
0.001207669
0.001207248
0.0002615382
0.001298607
0.001235171
0.001213692
0.0012075
0.00120569
0.001205228
0.0002707194
0.001297737
0.001234862
0.001213325
0.001207099
0.001205265
0.001204793
0.0002709027
0.001298442
0.00123522
0.001213835
0.001207703
0.001205916
0.001205461
0.0002617087
0.001299063
0.001236572
0.001215718
0.001209879
0.001208231
0.001207827
0.0005938181
0.00130105
0.001241119
0.001221683
0.001216537
0.001215159
0.001214838
0.0002707754
0.001310326
0.001257659
0.001242212
0.001238402
0.001237413
0.001237185
0.0002712941
0.001340154
0.001310263
0.001302477
0.001300605
0.001299973
0.001299606
0.0002835704
0.0001008051
0.0001008056
0.0001008018
0.0001008011
0.0001008011
0.0001008011
0.0003223362
0.0003301569
0.0003301799
0.0003298935
0.000329866
0.000329392
0.0002267982
0.0001039426
0.0001039694
0.0001031861
0.0001030865
0.0001027352
0.0001027086
0.0002720685
0.001342959
0.001313111
0.001303887
0.001301906
0.001301477
0.001301495
0.0002966081
0.001315295
0.001262445
0.001246966
0.001243193
0.001242293
0.001242228
0.0002690258
0.001306214
0.001246026
0.00122661
0.001221611
0.001220343
0.001220171
0.0002671761
0.001303315
0.001240808
0.001220026
0.001214305
0.001212777
0.001212533
0.0002674751
0.001301932
0.001239019
0.001217749
0.001211748
0.001210119
0.001209847
0.0002714613
0.001301384
0.001238128
0.001216675
0.001210561
0.001208901
0.001208638
0.0002657232
0.001301283
0.001237799
0.001216353
0.00121028
0.001208668
0.001208428
0.0002650107
0.001301131
0.001237919
0.001216763
0.001210947
0.001209485
0.001209258
0.0002644194
0.001301514
0.001239366
0.001219265
0.00121429
0.001213226
0.001212933
0.0002677913
0.00062933
0.0001006938
0.000258187
0.0001007587
0.0005906729
0.0006098409
0.0005693399
0.0001007521
0.0001007494
0.0001018839
0.0001018773
0.0005746425
0.0005551444
0.0005488533
0.0001007535
0.0001007504
0.0001019262
0.0001019341
0.000574667
0.0005466974
0.0005457291
0.0001007514
0.0001007512
0.0001019986
0.000101997
0.000574267
0.0005453792
0.0005452182
0.0001007522
0.0001007521
0.0001020664
0.0001020577
0.000574245
0.0005451799
0.0005451617
0.0001007534
0.0001007533
0.0001021466
0.000102142
0.0005451881
0.000100755
0.0001022522
0.0006433127
0.0006302664
0.000268692
0.0001009662
0.0002621464
0.0001008349
0.000627166
0.0006254785
0.0002619875
0.0001009275
0.0002616277
0.0001008331
0.000625125
0.0006249469
0.0002615737
0.000100965
0.0002614613
0.0001008328
0.0006248892
0.0006248634
0.0002614533
0.0001009663
0.0002614181
0.0001008279
0.0006248488
0.0006248278
0.0002614133
0.0001009758
0.0002613824
0.0001008249
0.0006248177
0.0006248004
0.0002613776
0.0001009778
0.0002613447
0.0001008229
0.0006247945
0.0006247817
0.0002613397
0.0001009787
0.0002613064
0.0001008409
0.0006247825
0.0006247878
0.0002613003
0.0001009778
0.0002612701
0.0001008572
0.000624826
0.000625035
0.000261265
0.0001009718
0.0002612476
0.0001008713
0.0006254201
0.0006275168
0.0002612458
0.0001009667
0.0002613389
0.0001008917
0.0006314711
0.0006490557
0.0002613967
0.0001009592
0.000262658
0.0001009133
0.0006471408
0.0003128246
0.0002635589
0.0001007515
0.0002119366
0.0001007529
0.0001366797
0.0003143251
0.0003069472
0.0001013873
0.0001366005
0.0003117496
0.0003103658
0.0003232934
0.0003324918
0.000102214
0.0001022115
0.0001366594
0.0003102511
0.0003098784
0.0003319069
0.0003304425
0.0001018118
0.0001017848
0.0001367206
0.0003102631
0.0003098759
0.0003302671
0.0003299662
0.000101221
0.0001011521
0.0001367873
0.0003105333
0.0003099542
0.0003299151
0.0003299159
0.0001013631
0.0001012692
0.0001368588
0.0003107647
0.0003100573
0.0003299043
0.0003299748
0.0001014881
0.0001015347
0.0003109976
0.0003299781
0.0001016966
0.0006866236
0.0006469477
0.0002233579
0.0001038752
0.000270506
0.0001010322
0.0006521055
0.0006363371
0.0002701667
0.000101471
0.0002677258
0.0001009302
0.0006325045
0.0006305846
0.0002679467
0.0001009842
0.0002674193
0.0001015804
0.0006301549
0.0006295869
0.0002677506
0.0001012192
0.0002669603
0.0001009092
0.0006293643
0.0006290726
0.000267138
0.0001011608
0.0002665129
0.0001008879
0.0006289239
0.0006286477
0.000266687
0.0001011449
0.0002660284
0.0001008508
0.0006284878
0.0006282063
0.0002661316
0.0001011413
0.000265525
0.0001008415
0.0006280427
0.0006277548
0.0002655893
0.0001011355
0.0002649896
0.0001008409
0.0006275914
0.0006272942
0.000265006
0.0001011254
0.0002644268
0.0001008382
0.0006271367
0.0006268349
0.0002644189
0.0001011124
0.0002638353
0.0001008376
0.0001006931
0.0002698166
0.000100693
0.000100693
0.000264078
0.0001006932
0.0003233392
0.0001021572
0.0003326543
0.0001017502
0.0001006931
0.0002639801
0.0001006932
0.000100693
0.0002636945
0.0001006932
0.0003321012
0.000102368
0.0003305897
0.0001011591
0.0001006931
0.0002636536
0.0001006932
0.000100693
0.0002635556
0.0001006932
0.0003304116
0.0001016607
0.0003300552
0.0001011104
0.0001006931
0.0002635
0.0001006932
0.000100693
0.0002635541
0.0001006931
0.0003300091
0.0001015775
0.0003299559
0.0001013396
0.0001006931
0.0002635257
0.0001006932
0.000100693
0.0002635719
0.0001006932
0.0003299557
0.0001011778
0.0003300087
0.0001015609
0.0001006931
0.0002635323
0.0001006932
0.000100693
0.0002636073
0.0001006932
0.0003300554
0.0001011389
0.0003304113
0.000101652
0.0001006931
0.0002636907
0.0001006931
0.0001006931
0.0002640197
0.0001006931
0.0003305874
0.0001011652
0.000332094
0.0001023569
0.0001006934
0.0002641069
0.0001006932
0.0001006931
0.0002698384
0.0001006929
0.0003326384
0.0001018196
0.00032326
0.000102164
0.0001006938
0.000258282
0.000100754
0.0006540082
0.0001006933
0.0001019039
0.0001019062
0.0006499646
0.0006318529
0.0001006932
0.0001019389
0.0001019365
0.0006277827
0.0006256895
0.0001006932
0.0001019821
0.0001019834
0.0006252656
0.000625048
0.0001006934
0.0001020448
0.000102046
0.0006250096
0.0006249885
0.0001006935
0.0001021255
0.0001021259
0.0006250085
0.0006250111
0.0001022243
0.000625053
0.0001009416
0.0002616336
0.000100834
0.0006277477
0.0006256461
0.0001009623
0.0002614647
0.000100833
0.0006252177
0.0006249842
0.0001009748
0.000265125
0.0001008257
0.0006248769
0.000624892
0.0001009782
0.0002815141
0.0001008291
0.0006252746
0.0006253158
0.0001007523
0.0002207225
0.0001007535
0.0006449884
0.0003109143
0.0003065944
0.0001014215
0.0001353051
0.0003142449
0.0003298891
0.0001011933
0.0001013405
0.0001367211
0.0001367816
0.0003692755
0.0003104245
0.0003296668
0.0001016286
0.0001019068
0.0001367868
0.000135597
0.0003110625
0.0003760647
0.0001015468
0.0001333715
0.0003779718
0.0001008956
0.0003174006
0.0001010292
0.0003084374
0.0001012981
0.0003074854
0.0001010177
0.0003062166
0.0001013192
0.0003053415
0.0001010351
0.0003059984
0.0001013425
0.0003052311
0.0001010268
0.0003059843
0.0001013204
0.0003052137
0.0001010375
0.0003059639
0.000101314
0.0003051908
0.000101039
0.0003059356
0.0001012925
0.000305165
0.0001010395
0.0003059029
0.0001012654
0.0003051365
0.0001010399
0.0003058663
0.0001012355
0.0003051054
0.0001010391
0.0003058273
0.0001012033
0.000305073
0.0001010383
0.0003057944
0.0001011676
0.0003050935
0.0001010343
0.0003061659
0.0001011235
0.0003066784
0.0001010178
0.0003102145
0.0001010637
0.0003171823
0.0006209346
0.0003110909
0.0003098931
0.0001008081
0.000100814
0.0001007507
0.0001007599
0.0006140108
0.0003097689
0.0003097396
0.0001008046
0.000100816
0.0001007487
0.000100766
0.0006133344
0.0003097422
0.0003097799
0.0001008014
0.0001008169
0.0001007509
0.0001007717
0.0006132892
0.0003097856
0.0003098293
0.000100801
0.0001008209
0.0001007529
0.0001007776
0.000613329
0.0003098324
0.0003098856
0.0001008012
0.0001008249
0.0001007552
0.0001007844
0.0003098896
0.0001008014
0.0001007586
0.0001381491
0.0003489634
0.0001365743
0.0003267618
0.0003269706
0.0001366134
0.0003269311
0.0003269034
0.0001366712
0.0003268133
0.0003268244
0.0001367327
0.0003268131
0.000326836
0.0001367976
0.0003268525
0.0003268774
0.0001368676
0.0003269087
0.0003269344
0.0001024265
0.0003287277
0.000102543
0.0003179981
0.0006683651
0.0006326793
0.0006109758
0.0001040507
0.0001037753
0.0001011714
0.0001012372
0.0006644907
0.0006062072
0.000603608
0.0001038934
0.0001037418
0.0001012471
0.0001011972
0.0006639869
0.0006034533
0.0006031268
0.0001036406
0.0001031734
0.0001011722
0.0001010608
0.0006640705
0.0006033547
0.0006032037
0.0001033041
0.000102931
0.0001011325
0.0001010398
0.0006642799
0.0006035055
0.0006033244
0.0001030875
0.0001027628
0.0001011171
0.0001010354
0.0006036865
0.0001030033
0.000101115
0.0001021759
0.0003151802
0.000102657
0.000313666
0.0001015364
0.0003121624
0.0001021006
0.0003109127
0.0001018455
0.0003118515
0.0001023097
0.0003106098
0.0001016691
0.0003112758
0.0001021279
0.0003100926
0.0001016538
0.0003108356
0.0001020801
0.000309639
0.0001015964
0.0003103378
0.0001020445
0.0003091459
0.000101553
0.0003098298
0.0001020004
0.0003086331
0.0001014898
0.0003092913
0.000101944
0.0003081047
0.0001014259
0.000308727
0.0001018717
0.0003075606
0.0001008685
0.000100871
0.0001007535
0.0002151261
0.00010076
0.0005949819
0.0001007507
0.0002151387
0.0001007596
0.0003347842
0.0003351295
0.0001007655
0.0006183064
0.0001008031
0.0002271699
0.0001009362
0.0006038448
0.0001007056
0.0001008644
0.0001008721
0.0001008055
0.0002150809
0.0001007607
0.000589229
0.0001008034
0.0002147963
0.0001007592
0.0003352687
0.0003352222
0.0001008442
0.0006122595
0.0001007603
0.0002273865
0.0001007654
0.0005981055
0.0001008309
0.0001008721
0.0001008686
0.0001008018
0.0002147328
0.000100759
0.0005840378
0.0001008017
0.0002146873
0.0001007589
0.0003351338
0.0003351169
0.0001008873
0.0005947513
0.0001007474
0.0002272328
0.0001008034
0.0005929664
0.0001008305
0.0001008709
0.0001008737
0.0001008014
0.0002146834
0.0001007585
0.0005835146
0.0001008014
0.0002146795
0.0001007584
0.0003350896
0.0003350869
0.0001009523
0.0005926129
0.0001007554
0.0002270166
0.0001008423
0.0005924255
0.0001007828
0.0001008768
0.0001008709
0.0001008014
0.0002146799
0.0001007584
0.0005837013
0.0001008014
0.0002146838
0.0001007585
0.0003350834
0.0003350854
0.0001007628
0.0005924734
0.0001008323
0.0002270133
0.0001009347
0.0005926142
0.0001007417
0.0001008691
0.0001008686
0.0001008017
0.0002146872
0.0001007589
0.0005859248
0.0001008018
0.0002147343
0.000100759
0.0003350948
0.0003351054
0.0001007912
0.0005929815
0.0001008534
0.0002270165
0.0001008839
0.0005947827
0.0001007386
0.0001008676
0.0001008685
0.0001008035
0.0002147996
0.0001007591
0.0006039586
0.0001008055
0.0002151434
0.0001007606
0.000335156
0.000335187
0.0001007672
0.0005981674
0.0001008328
0.0002271481
0.0001008468
0.0006124775
0.000100758
0.0001008702
0.0001008757
0.0001007508
0.0002153292
0.0001007596
0.0006208401
0.0001007546