/*--------------------------------*- C++ -*----------------------------------*\
  =========                 |
  \\      /  F ield         | OpenFOAM: The Open Source CFD Toolbox
   \\    /   O peration     | Website:  https://openfoam.org
    \\  /    A nd           | Version:  7
     \\/     M anipulation  |
\*---------------------------------------------------------------------------*/
FoamFile
{
    version     2.0;
    format      ascii;
    class       surfaceScalarField;
    location    "0.07";
    object      phi;
}
// * * * * * * * * * * * * * * * * * * * * * * * * * * * * * * * * * * * * * //

dimensions      [0 3 -1 0 0 0 0];

internalField   nonuniform List<scalar> 
228133
(
3.050011e-05
-1.670445e-05
-0.000435712
-3.871265e-05
-1.264742e-05
3.384094e-05
3.590051e-06
1.469317e-05
-1.002482e-05
-0.0004269841
-8.826527e-05
5.776406e-06
-5.173958e-06
-0.0004348494
-0.0001040042
5.671844e-06
-5.765797e-06
-0.0004637205
-0.000110957
7.322117e-06
-7.845026e-06
-0.0004915189
-0.0001175627
8.902943e-06
-0.0005294174
-0.0001263984
-8.985146e-06
-9.979883e-05
-0.001768039
-4.825023e-05
0.0004203483
0.0004139923
0.0005217287
0.0005138574
8.358771e-05
-8.531117e-05
7.824997e-05
-3.036541e-05
-0.0001300085
-0.001850555
-2.492036e-05
0.0004330321
0.0004203166
0.0005289365
0.0005233994
-0.0001654925
-0.001945274
-4.016504e-05
0.0004491495
0.000452927
0.0005610582
0.0005577887
-0.0001990015
-0.002064629
-4.321293e-05
0.0004848932
0.0004767194
0.0005963829
0.000583355
-0.0002496501
-0.002173386
-5.090211e-05
0.0005129857
0.0005105043
0.0006293992
0.0006220478
-0.002357828
-5.091956e-05
0.0005566165
0.0006829834
-0.0002907871
0.0005431026
0.0006671821
-7.164897e-05
-0.001679197
-2.339706e-05
9.899272e-05
-9.521853e-05
5.291473e-05
-5.048479e-05
-0.0001482655
-0.001703783
-7.015506e-05
-0.0002267939
-0.001789495
-7.72508e-05
-0.0003050623
-0.001891637
-9.472327e-05
-0.0003765055
-0.002004313
-9.762996e-05
-0.002162703
-0.0001097461
-0.0004618843
-0.0001648023
-0.001602664
-8.400166e-06
0.0001169761
-7.230089e-05
7.640965e-05
-2.441521e-05
-0.0002361067
-0.001627206
-5.272585e-06
-0.0003228392
-0.00169162
-1.114229e-05
-0.0004190274
-0.001778062
-1.738665e-05
-0.0005163495
-0.001890167
-1.682427e-05
-0.002031257
-2.269669e-05
-0.000625099
-0.0002032011
-0.001491948
-1.490194e-05
0.0001156999
-6.39881e-05
7.593854e-05
-2.026332e-05
-0.0003004593
-0.001508908
-2.104022e-05
-0.0004114671
-0.001563609
-1.700353e-05
-0.0005276215
-0.001640848
-2.106006e-05
-0.000651976
-0.001743342
-2.247121e-05
-0.001873343
-2.43258e-05
-0.0007855641
-0.0002516769
-0.001367802
-1.094688e-05
0.0001161358
-5.058258e-05
8.133031e-05
-8.40535e-06
-0.0003681889
-0.001381827
-1.056821e-05
-0.000498237
-0.001429685
-3.87601e-06
-0.0006359431
-0.00149799
-5.151846e-06
-0.0007835482
-0.001592019
-3.717902e-06
-0.001709145
-4.843559e-06
-0.0009429032
-0.0002892756
-0.001220307
-1.436088e-05
0.0001121311
-3.801667e-05
8.20803e-05
-5.343741e-08
-0.0004240582
-0.001232361
-1.468373e-05
-0.0005744026
-0.001273971
-5.369651e-06
-0.00073218
-0.001334502
-5.710179e-06
-0.0009021423
-0.001417845
-4.211472e-06
-0.001522199
-4.464245e-06
-0.001084624
-0.0003249121
-0.001056918
-1.550063e-05
0.0001078004
-2.453395e-05
8.307125e-05
1.068561e-05
-0.0004759484
-0.001067936
-1.33889e-05
-0.0006435546
-0.00110323
-3.134542e-06
-0.0008199635
-0.001155466
-2.62764e-06
-0.001009601
-0.001227685
-5.231405e-07
-0.001317742
-5.633691e-07
-0.001213495
-0.0003552049
-0.0008799305
-1.606634e-05
0.00010185
-1.131298e-05
8.283884e-05
2.090804e-05
-0.0005205969
-0.0008889479
-1.359594e-05
-0.0007042234
-0.0009182475
-1.356448e-06
-0.0008971446
-0.0009622764
-2.68441e-07
-0.001104749
-0.001022435
2.355079e-06
-0.00109778
2.86635e-06
-0.001327577
-0.0003793499
-0.0006907862
-1.653543e-05
9.449315e-05
2.775952e-06
8.000413e-05
2.946783e-05
-0.000559354
-0.0006979454
-1.099842e-05
-0.0007563979
-0.0007219572
7.53536e-07
-0.0009645422
-0.0007567532
2.620913e-06
-0.001187822
-0.0008039468
4.791461e-06
-0.0008635102
5.279268e-06
-0.001427371
-0.0004029589
-0.0004998917
-9.535169e-06
8.635381e-05
1.931361e-05
7.663554e-05
3.92967e-05
-0.0005895734
-0.0005104575
-8.734921e-07
-0.0008002028
-0.0005266376
1.530964e-05
-0.001020594
-0.0005537784
1.74168e-05
-0.001256911
-0.000589603
2.197305e-05
-0.0006341456
2.429252e-05
-0.001510569
-0.0004181323
-6.125499e-05
-3.887145e-06
7.851986e-05
3.737918e-05
7.317893e-05
4.992997e-05
-9.369092e-05
-7.416852e-05
-8.776571e-05
-0.0006174638
-5.234068e-05
1.912922e-05
-0.0001087706
-7.544706e-05
-9.369702e-05
-0.0008357598
-4.014503e-05
2.555311e-05
-0.0001237341
-7.227697e-05
-9.773859e-05
-0.001065192
-3.021116e-05
2.829335e-05
-0.0001411118
-7.402798e-05
-0.0001072886
-0.00131115
-2.126078e-05
2.979082e-05
-0.0001600283
-7.552064e-05
-0.0001166261
-1.308022e-05
3.192586e-05
-7.944406e-05
-0.001574979
-0.0001816538
-0.000128065
5.624247e-05
-7.733567e-05
1.581038e-06
-7.375102e-06
-1.074522e-05
-1.172291e-05
-1.18996e-05
0.0001221874
-0.0001389211
1.963788e-06
-1.115676e-05
-3.89685e-06
-9.175073e-06
-1.334211e-05
0.0001913939
-0.0002019111
1.227317e-06
-1.037649e-05
4.172313e-07
-6.849732e-06
-1.404615e-05
0.0002578956
-0.0002597472
3.061361e-07
-1.087298e-05
3.958263e-06
-5.598075e-06
-1.615292e-05
0.0003285032
-0.0003258508
1.699873e-07
-1.034022e-05
7.938747e-06
-3.860482e-06
-1.782121e-05
0.0004049886
5.607844e-07
-1.058746e-05
1.14578e-05
-2.516764e-06
-2.019429e-05
-0.0003967889
4.312393e-06
-1.15022e-07
-3.747029e-06
-2.059163e-07
-2.444276e-07
9.118068e-06
-1.024104e-06
-7.466049e-06
-2.575728e-08
-6.021599e-07
1.385607e-05
-1.909196e-06
-1.113028e-05
1.717019e-07
-9.883e-07
1.891046e-05
-2.853796e-06
-1.509964e-05
2.10155e-07
-1.167186e-06
2.410085e-05
-3.844433e-06
-1.921217e-05
4.277681e-07
-1.472029e-06
2.962728e-05
-4.824497e-06
-2.35976e-05
6.463275e-07
-1.851522e-06
-0.002442572
-0.0003435787
0.0005750791
0.008997999
0.001333257
-0.002402444
-0.002875761
-0.002841979
-0.002408612
-0.000915785
0.001155232
0.008969084
0.001240537
-0.002353248
-0.002853837
-0.002833371
-0.002405498
-0.001332885
0.001482606
0.008978101
0.001262366
-0.002329285
-0.002828543
-0.002826863
-0.002423271
-0.001760359
0.00192825
0.00901087
0.001200178
-0.002311429
-0.002828
-0.00281624
-0.002429459
-0.002231418
0.002410471
0.009071178
0.001113432
-0.002297386
-0.002825656
-0.002811163
-0.002439495
-0.00272282
0.009125555
0.001074109
-0.002291319
-0.002826698
-0.00281141
0.002892076
0.006100942
0.03224947
0.001778109
-0.001683524
0.0003962297
-0.001554867
-0.0009830989
-0.008053937
-0.008133732
-0.009924304
-0.01019129
0.007615801
0.03275813
0.003991515
-0.008617651
-0.008195813
-0.01065191
-0.01079913
0.009133381
0.0326659
0.004184427
-0.008769441
-0.0083437
-0.01071836
-0.0105364
0.01091026
0.03239549
0.003976861
-0.008872759
-0.008300281
-0.01058667
-0.01038953
0.01272762
0.03222315
0.004076716
-0.009013609
-0.008282493
-0.01050473
-0.01031639
0.03234288
0.003702515
-0.009109271
-0.01048019
0.01471463
-0.008217797
-0.01022515
0.003340174
0.02953399
-3.175892e-05
-0.001380761
0.00117052
-0.0006094034
0.0002267103
0.006136893
0.0293329
0.0006285172
0.008492919
0.02954662
0.0007632567
0.01064009
0.02962658
0.0006217348
0.0127058
0.02961464
0.0005428066
0.02981316
0.0005845453
0.01465098
0.00482891
0.02713165
0.0005305374
-0.001818414
0.0004883404
-0.001086534
-0.0005405024
0.006689041
0.0268637
0.0006090695
0.008817043
0.02693349
0.0004851268
0.0109128
0.02710149
0.0004293392
0.0129413
0.027174
0.0004121402
0.02745203
0.0004124503
0.01488998
0.004377601
0.02479516
0.0001072846
-0.001560743
0.0005306491
-0.0009001815
-0.0002181205
0.006553104
0.02455751
0.0001306815
0.00876473
0.02467641
4.54581e-05
0.01100663
0.02479075
6.883189e-05
0.01318617
0.02495303
4.143257e-05
0.02533699
9.705951e-05
0.01520415
0.004873875
0.02246562
8.477482e-05
-0.001559853
0.0003901668
-0.001023718
-0.0004357027
0.00700991
0.02222173
0.0001997416
0.00933527
0.02229327
5.777227e-05
0.01155469
0.02247542
9.591174e-05
0.01369523
0.02278735
2.513421e-05
0.02324384
6.850312e-05
0.01571988
0.004883829
0.01999816
0.0001114335
-0.001468636
0.0003109879
-0.0009888698
-0.000381287
0.00715242
0.01978161
0.0001715323
0.009536775
0.01991086
-1.945687e-06
0.01184045
0.02014673
2.501744e-05
0.01408934
0.02056559
-2.712047e-05
0.02111939
-8.454785e-06
0.01622224
0.005156991
0.01740617
0.0001770824
-0.001421995
0.0001866842
-0.00103161
-0.0004751621
0.007480634
0.01725563
0.0002023335
0.009949588
0.01742263
1.927867e-05
0.01235031
0.01771728
2.872468e-05
0.01470624
0.01822059
-1.092649e-05
0.01887678
-6.610393e-06
0.01695546
0.005304981
0.01470912
0.0001911625
-0.00134528
7.47693e-05
-0.001033445
-0.0004951372
0.007746417
0.01461777
0.0001964253
0.01033407
0.0148194
1.558566e-05
0.01287592
0.01516082
1.460234e-05
0.01538903
0.01572787
-2.038495e-05
0.01647802
-1.9389e-05
0.01780718
0.005539902
0.0001970708
-0.001276162
-6.329955e-05
-0.001038318
-0.000562315
0.01191224
0.008096062
0.0001838581
0.01187776
0.01082214
9.111533e-07
0.01209241
0.01353579
-1.365181e-05
0.01246082
0.01625819
-4.602511e-05
0.0130515
-6.004401e-05
0.01386947
0.01892679
1.495625e-05
4.101601e-05
-6.276219e-05
-0.0005169975
-1.212072e-05
1.987362e-06
3.960175e-05
2.475949e-06
-7.854856e-05
-0.002074338
-6.247389e-05
8.789456e-05
0.0001307312
-3.668246e-05
-4.190398e-05
9.48999e-05
-1.052393e-05
0.0001339147
-1.085345e-05
-5.828869e-05
-0.002152549
-9.079524e-05
0.0001525789
0.0001519803
-4.42558e-05
-4.101504e-05
-6.726076e-05
-0.00226459
-0.0001085561
0.0001646496
0.0001609064
-4.3761e-05
-3.663261e-05
-7.951957e-05
-0.002405884
-0.0001148486
0.000174778
0.0001702097
-4.52361e-05
-4.077715e-05
-0.0025815
-0.0001228301
0.0001873893
-4.97241e-05
-9.442797e-05
0.0001826169
-4.115684e-05
1.437652e-05
9.659289e-05
-1.895533e-05
-0.0004421299
2.407894e-06
1.063768e-05
-1.739332e-05
3.361445e-07
0.0001206007
0.0001037546
0.0001297722
-5.332252e-05
-0.00197054
-2.119722e-05
0.0005043396
0.000517535
0.0004928751
0.0004985708
2.218416e-05
-2.010893e-05
1.244867e-05
-3.103499e-05
-9.143573e-05
-0.002040765
-2.038037e-05
-0.0001445614
-0.002108532
-3.105615e-05
-0.0001924111
-0.002220869
-3.908387e-05
-0.0002445609
-0.002359606
-4.503059e-05
-0.002535815
-4.238059e-05
-0.0002987849
2.656496e-05
0.0004411001
-2.006954e-05
-0.0004356387
-2.631039e-05
1.576425e-05
-1.248973e-05
1.107902e-05
-0.0001346021
-0.001886544
2.221642e-06
3.120297e-05
-1.15809e-05
9.004122e-06
-3.638215e-06
-0.0002046551
-0.001984461
-5.640574e-05
-0.0002765193
-0.002058791
-5.512731e-05
-0.000352941
-0.002162254
-7.691669e-05
-0.0004346121
-0.002298349
-7.721588e-05
-0.002467991
-8.929548e-05
-0.0005228874
2.61821e-05
0.000443377
-3.630338e-05
-0.0004383955
-8.968053e-06
1.50435e-05
-1.159753e-05
1.066185e-05
-0.0001846075
-0.001800382
-4.714289e-06
5.706921e-05
-1.083784e-05
4.043045e-05
8.097344e-06
-0.0002791674
-0.001879072
-1.610213e-05
-0.0003806402
-0.00194463
-2.383075e-05
-0.0004870463
-0.002039548
-3.368648e-05
-0.0006013229
-0.002165955
-3.494144e-05
-0.002325461
-4.154605e-05
-0.0007250032
2.490502e-05
0.0004336924
-2.564003e-05
-0.0004116536
-3.61414e-05
1.427329e-05
-1.029227e-05
1.085662e-05
-0.0002406505
-0.001679525
-1.084905e-05
4.873951e-05
1.134592e-05
3.185005e-05
2.380522e-05
-0.0003597133
-0.001756676
-2.437287e-05
-0.0004860589
-0.001817085
-1.82029e-05
-0.0006196507
-0.00190476
-2.225655e-05
-0.0007631763
-0.002023145
-2.175527e-05
-0.002171309
-2.361131e-05
-0.0009180431
2.328164e-05
0.0004084983
-3.473509e-05
-0.0003894075
-1.978073e-05
1.308025e-05
-1.079366e-05
9.856874e-06
-0.000285876
-0.001542243
-1.391427e-05
6.043168e-05
1.869011e-05
4.29992e-05
2.944056e-05
-0.0004333351
-0.001604751
-1.50345e-05
-0.0005826205
-0.001659897
-1.177926e-05
-0.000742708
-0.00173845
-1.137425e-05
-0.0009141373
-0.001845889
-9.545206e-06
-0.001980769
-1.024147e-05
-0.001099279
2.124394e-05
0.0003780062
-3.922334e-05
-0.0003531551
-1.828262e-05
1.186241e-05
-9.442979e-06
8.991531e-06
-0.0003299707
-0.001377554
-1.69511e-05
6.607291e-05
2.152977e-05
4.782552e-05
3.244401e-05
-0.0004989777
-0.001432259
-1.816879e-05
-0.0006717541
-0.001481381
-1.110905e-05
-0.0008559835
-0.001551365
-8.565433e-06
-0.001053434
-0.001647264
-5.386461e-06
-0.001767638
-4.742655e-06
-0.001266286
1.904849e-05
0.0003386381
-3.651345e-05
-0.0003104035
-2.067966e-05
1.068904e-05
-8.467885e-06
7.688891e-06
-0.0003699866
-0.001192608
-1.686729e-05
6.599613e-05
2.877391e-05
5.304055e-05
3.859626e-05
-0.0005593968
-0.001240358
-1.588008e-05
-0.0007531589
-0.001282275
-8.478253e-06
-0.0009599645
-0.001343043
-4.144587e-06
-0.001181263
-0.001426179
-3.102413e-07
-0.001530781
1.062818e-06
-0.001419746
1.657681e-05
0.0002905753
-3.577895e-05
-0.0002590914
-2.326749e-05
8.855002e-06
-4.829546e-06
6.960337e-06
-0.0004047963
-0.0009930375
-1.836356e-05
6.662353e-05
4.056709e-05
5.502877e-05
4.530401e-05
-0.0006133742
-0.00102981
-1.556595e-05
-0.000826911
-0.001064782
-5.312575e-06
-0.001054416
-0.001115916
1.086168e-07
-0.001297709
-0.001185736
5.206027e-06
-0.001273411
7.308227e-06
-0.001559522
1.454074e-05
0.0002379262
-4.075375e-05
-0.0002086682
-1.55384e-05
7.517367e-06
-1.777148e-06
6.753193e-06
-0.0004345366
-0.0007841329
-1.73107e-05
7.138373e-05
4.49842e-05
6.202599e-05
4.801329e-05
-0.0006627104
-0.0008050226
-7.611708e-06
-0.0008952258
-0.0008332904
1.777034e-06
-0.00114258
-0.0008754134
9.47297e-06
-0.001406086
-0.0009318653
1.442648e-05
-0.001002076
1.726779e-05
-0.00168941
1.153943e-05
0.000185823
-3.908375e-05
-0.0001542543
-1.14764e-05
6.083546e-06
-2.895821e-06
4.264305e-06
-0.0004611996
-0.000553675
-9.599919e-06
7.098325e-05
4.813214e-05
6.278059e-05
4.891054e-05
-0.0007052464
-0.000557468
-4.381318e-06
-0.0009568957
-0.0005796449
1.331344e-05
-0.001220933
-0.0006125732
1.861378e-05
-0.001502795
-0.0006534883
2.54578e-05
-0.0007029548
2.811107e-05
-0.001805734
7.816012e-06
0.0001276903
-3.816697e-05
-8.908379e-05
-1.239143e-05
3.657511e-06
-1.893232e-06
2.371619e-06
-0.0004937963
-6.953734e-05
-5.201626e-06
7.19854e-05
5.479647e-05
6.969932e-05
5.66771e-05
-8.159405e-05
-6.92266e-05
-9.136451e-05
-0.0007453451
-6.864036e-05
2.499108e-05
-9.090135e-05
-7.111034e-05
-8.112897e-05
-0.001007774
-6.793563e-05
2.634763e-05
-9.897069e-05
-7.008873e-05
-8.101562e-05
-0.001281863
-7.2158e-05
3.442824e-05
-0.0001096066
-7.59549e-05
-8.689945e-05
-0.001574219
-7.393216e-05
3.729935e-05
-0.0001200118
-8.17667e-05
-9.293062e-05
-7.864853e-05
4.129277e-05
-8.878516e-05
-0.001888165
-0.0001296176
-0.0001013244
3.292114e-06
-2.554602e-05
-3.749084e-07
6.367782e-05
1.184333e-07
-8.224594e-07
-1.808006e-07
-8.418944e-06
-1.13653e-05
-1.149051e-05
-8.889441e-06
-2.946275e-07
5.845022e-05
-9.033342e-05
-4.0566e-05
3.206459e-06
-1.511661e-07
0.0001284392
-0.0001601347
-3.520029e-05
-1.593408e-06
4.084378e-07
0.0001943992
-0.0002259557
-3.665286e-05
-1.347001e-07
2.400565e-06
0.000261169
-0.0002917721
-4.038136e-05
-3.574214e-06
2.764402e-06
0.0003330149
-0.000365271
-4.023747e-05
-4.203013e-06
1.102059e-06
0.0004082802
-4.276114e-05
-4.892009e-06
-0.0004403777
4.791015e-06
1.248019e-05
1.418413e-05
-4.697646e-05
3.23985e-06
-2.019623e-06
1.430089e-05
4.560479e-06
7.744365e-06
5.704902e-05
-6.972684e-05
3.696843e-06
-3.323865e-06
9.279997e-06
1.058678e-05
8.32288e-05
-9.643816e-05
-4.277055e-06
-2.380338e-06
1.299463e-05
1.061403e-05
0.0001133009
-0.0001266404
-6.798045e-06
-3.471078e-06
1.658763e-05
1.10375e-05
0.0001438457
-0.0001578901
-9.354996e-06
-4.225659e-06
2.040569e-05
1.060695e-05
0.0001761847
-1.169379e-05
-4.706633e-06
-0.0001907969
2.142346e-05
-0.0005551801
0.001951231
-2.105368e-05
-0.000704288
-0.0006921323
-0.0008103391
-0.001055428
-0.008898392
0.0006093394
0.01028401
-0.000129187
8.726423e-05
-0.01033501
-0.000966716
0.001073054
0.01040242
-0.0002610166
-6.614431e-05
-0.01032386
-0.001439231
0.001605405
0.01023406
-1.023302e-05
-0.0001381682
-0.01025308
-0.001840481
0.002057871
0.0101327
4.116078e-05
-0.0001606233
-0.01022973
-0.002308734
0.002482402
0.01010468
0.0001120074
-0.0002053361
-0.01023346
-0.002768207
0.01009818
0.0001725035
0.002936323
-0.0002814923
-0.008202192
0.0006298161
0.007511515
0.0004551025
-2.024004e-05
9.468659e-05
-0.000187196
0.007324445
0.03626927
0.00129749
-0.01017157
-0.009926798
-0.009782579
-0.009745809
-0.001099606
-0.0006998576
-0.001012009
-0.0006748651
0.009184906
0.03800107
0.005007869
-0.01042309
-0.01017346
-0.0104178
-0.00986353
0.0111632
0.03812332
0.005499053
-0.01044624
-0.01036265
-0.01033487
-0.01027249
0.0133482
0.03770297
0.005172134
-0.01036061
-0.01025163
-0.01023457
-0.01023643
0.01558057
0.03766455
0.005338114
-0.0103669
-0.01023193
-0.01024983
-0.01030965
0.03773135
0.004736636
-0.01030435
-0.01029162
0.01790983
-0.0101552
-0.01034356
-0.0002185136
-0.007277301
-5.337794e-05
0.007385672
4.766098e-05
7.530249e-05
0.0001563799
-0.000115823
0.003636462
0.03342755
-0.0007299352
-0.0001056947
0.0001132805
-0.0001975263
9.337562e-05
0.007012587
0.03467455
0.0005789088
0.01009302
0.03471934
0.001086807
0.01287971
0.03453321
0.001004799
0.01551509
0.03461297
0.0009590104
0.03493432
0.0009913532
0.01790532
-0.0002336423
-0.007583208
0.0003423125
0.007228752
0.000126616
6.886526e-05
0.000154994
-0.0001046896
0.00561492
0.03103165
0.0004361743
-0.0008055778
-0.0007856445
-0.0007429964
-0.0007904414
0.00794337
0.03200019
0.0009549801
0.01042576
0.03175387
0.0009682019
0.01286765
0.03160785
0.0009128126
0.01526344
0.03172671
0.0009025989
0.0321212
0.0009020778
0.01758694
-0.0002200931
-0.007002103
0.0004163799
0.006700095
2.313127e-05
5.433341e-05
0.0001364868
-0.0001082307
0.005084593
0.02834176
0.0001482291
-0.0007895959
-0.0004575362
-0.0006958796
-0.0004926368
0.007812381
0.02907475
0.0003283317
0.01046166
0.02888766
0.0002623998
0.0130217
0.02888183
0.0002348174
0.0154671
0.02912022
0.0002025218
0.02959185
0.0002689218
0.01782458
-0.0002104767
-0.006515818
0.0004211003
0.006114551
0.0001256734
4.197575e-05
0.0001262549
-0.0001032611
0.005512283
0.02551647
0.000190921
-0.0008138409
-0.0006027931
-0.0007129596
-0.000663547
0.008339182
0.02606627
0.0003813285
0.01096598
0.02606543
0.0002531988
0.01351306
0.02623963
0.0001910315
0.01596472
0.02658936
0.000104334
0.02711551
0.0001751051
0.01833446
-0.0001934637
-0.005859049
0.0004434631
0.005480853
7.926813e-05
3.456345e-05
0.0001148795
-0.0001005143
0.005523063
0.02263834
0.0001669245
-0.0008297306
-0.0005459954
-0.000724832
-0.0005998656
0.008420671
0.02307913
0.0002610609
0.01113815
0.02321174
0.000134271
0.01381907
0.02347514
0.0001085783
0.01641872
0.02394453
1.806049e-05
0.02458071
3.868985e-05
0.01890638
-0.0001806625
-0.005227258
0.0004416594
0.004829667
0.0001121336
1.934322e-05
9.983719e-05
-9.471949e-05
0.005850462
0.01967413
0.0002064613
-0.0008612211
-0.0006133165
-0.0007657352
-0.0006753516
0.008770299
0.02009272
0.0002689114
0.01158575
0.02029635
0.0001192173
0.01438018
0.02063179
7.764412e-05
0.01710796
0.0212037
2.126686e-06
0.02195755
-3.205495e-06
0.01972771
-0.0001652399
-0.004548943
0.0004517173
0.004147587
0.0001224975
6.245329e-06
7.67778e-05
-9.064282e-05
0.006024716
0.01661607
0.0002085465
-0.0008746571
-0.0006488752
-0.0007836709
-0.0006768428
0.009072116
0.01699752
0.0002442243
0.01203467
0.01725014
9.923346e-05
0.01499951
0.01764094
4.061784e-05
0.01791704
0.01829489
-2.91109e-05
0.01916289
-4.41284e-05
0.02073645
0.0006996631
-1.085467e-05
-0.000307776
-4.317739e-05
-0.003705589
0.003367734
0.006285699
0.0002073976
0.013478
-0.0007238524
-0.0009019982
-0.0008324393
0.009472476
0.0002056695
0.01378893
0.01261126
5.468568e-05
0.01405759
0.01578609
-2.335406e-05
0.0144758
0.01896026
-8.709203e-05
0.01516179
-0.0001314085
0.01611194
0.02208257
3.91733e-05
3.797531e-06
-6.621066e-05
-0.0005009812
-2.587881e-06
2.542764e-06
3.90056e-05
2.161017e-06
-6.851171e-05
-0.002040165
-1.893947e-05
0.0001350632
-1.825024e-05
0.0001349332
-1.644976e-05
-4.313217e-05
-0.002168371
-2.166681e-05
-5.407923e-05
-0.002263634
-2.654547e-05
-6.819966e-05
-0.002427664
-3.068529e-05
-0.002603595
-3.260852e-05
-8.240686e-05
0.0001026558
-1.558913e-05
-2.891634e-05
-0.0004278536
1.201096e-05
0.0001209255
0.0001076538
0.0001291131
-0.00012118
-0.00194895
-1.585053e-05
0.0004947199
0.0005044548
0.0004981746
0.0004956739
3.338279e-05
5.788352e-06
3.428597e-05
-1.696985e-06
-0.0001317157
-0.002022707
-2.730276e-05
-0.0001716727
-0.002126383
-3.308742e-05
-0.0002131785
-0.002219369
-4.184343e-05
-0.0002665695
-0.002371158
-4.814614e-05
-0.002542815
-5.017232e-05
-0.0003195586
-5.836442e-05
-0.001637901
-3.084274e-05
5.236707e-05
3.007647e-05
-8.379574e-05
-1.100795e-05
0.000380475
0.0004830975
0.0003955836
0.0004803117
-0.0001242574
-0.001889582
8.746913e-06
-0.0002044629
-0.001958347
-4.056037e-05
-0.000274899
-0.002065965
-4.510912e-05
-0.0003529535
-0.002157366
-6.086472e-05
-0.0004336015
-0.002301043
-6.668287e-05
-0.002467874
-7.424747e-05
-0.0005235906
-0.000122649
-0.001506131
2.4223e-05
5.302966e-05
-1.000439e-06
-6.967025e-05
-1.570252e-05
-0.0002023781
-0.001811654
-2.913438e-06
-0.0002925416
-0.001871176
-1.31089e-05
-0.0003935716
-0.001961805
-2.696054e-05
-0.0004984511
-0.002054468
-3.170562e-05
-0.0006123055
-0.002184726
-3.740358e-05
-0.002344237
-4.09235e-05
-0.000736565
-9.629182e-05
-0.001421741
-6.102639e-06
8.243042e-05
1.952854e-05
-7.468675e-05
-9.267647e-06
-0.0002297121
-0.001682797
-6.285557e-06
-0.0003564578
-0.001749451
-1.935201e-05
-0.0004883928
-0.001828094
-1.997891e-05
-0.0006259306
-0.001915029
-2.415715e-05
-0.0007717135
-0.002035879
-2.481943e-05
-0.002183669
-2.717213e-05
-0.0009287202
-0.0001297657
-0.001291721
5.052942e-07
6.623729e-05
1.243483e-05
-6.86959e-05
-1.073535e-05
-0.0002784449
-0.001539266
-8.7665e-06
-0.0004317723
-0.001599925
-1.123318e-05
-0.0005879862
-0.001670296
-1.336371e-05
-0.0007518372
-0.001750451
-1.21012e-05
-0.0009265146
-0.001859821
-1.092635e-05
-0.001994938
-1.105815e-05
-0.001114429
-0.0001431482
-0.001153937
-5.091667e-06
6.110361e-05
1.237005e-05
-5.621457e-05
-6.804028e-06
-0.0003164354
-0.001371787
-1.114254e-05
-0.0004937846
-0.001426942
-1.380339e-05
-0.0006755809
-0.00148711
-1.249904e-05
-0.0008658731
-0.00155902
-9.70499e-06
-0.001068207
-0.001656287
-6.586918e-06
-0.001777077
-5.654321e-06
-0.001285156
-0.0001649466
-0.001001057
-4.708186e-06
5.808469e-05
1.239796e-05
-4.726556e-05
-6.441945e-06
-0.0003554288
-0.001187024
-1.114811e-05
-0.0005551579
-0.001231527
-1.15652e-05
-0.000759268
-0.001281923
-9.555163e-06
-0.0009738311
-0.001343911
-4.690092e-06
-0.001201534
-0.001428337
-5.575249e-07
-0.001533385
1.288413e-06
-0.001445452
-0.0001783032
-0.000833585
-5.860242e-06
5.340501e-05
1.271098e-05
-4.245968e-05
-6.964783e-06
-0.0003885232
-0.0009834265
-1.174088e-05
-0.0006085809
-0.001016282
-1.075388e-05
-0.0008361711
-0.001053684
-5.960668e-06
-0.00107426
-0.001105931
2.170495e-07
-0.001326331
-0.001176792
5.732777e-06
-0.001265001
8.299903e-06
-0.001595707
-0.0001884668
-0.0006499281
-5.735764e-06
3.897618e-05
9.860582e-06
-3.218325e-05
-6.107758e-06
-0.0004139107
-0.0007640974
-1.119598e-05
-0.000660072
-0.0007742515
-3.480645e-06
-0.0009113178
-0.0008018494
1.187755e-06
-0.001172005
-0.0008456357
9.864602e-06
-0.001446799
-0.0009026573
1.508603e-05
-0.0009728069
1.826205e-05
-0.001739988
-0.0001983101
-0.000460754
-7.037194e-06
3.104031e-05
5.333026e-06
-1.589074e-05
-4.309436e-06
-0.0004437485
-0.000522511
-5.747779e-06
-0.0007071593
-0.0005124422
-2.779852e-06
-0.0009791323
-0.0005244328
7.869768e-06
-0.001257615
-0.0005612889
1.274944e-05
-0.001551082
-0.0006021308
1.839863e-05
-0.0006511181
2.032648e-05
-0.001864986
-0.0002029215
-6.098183e-05
-6.106816e-06
-7.445706e-05
-6.326002e-05
-7.460192e-05
2.554382e-05
3.531106e-06
-2.119116e-06
-5.380708e-06
-0.0004560956
-5.871998e-05
-5.042431e-06
-7.540267e-05
-5.916877e-05
-7.62047e-05
-0.0007422312
-0.0002194231
1.810751e-05
-0.001022637
-0.0002324605
1.478107e-05
-0.001300386
-0.0002686605
1.954836e-05
-0.001599147
-0.000286939
2.086924e-05
-0.0003121845
2.289614e-05
-0.001919684
2.552947e-06
-2.433205e-05
5.011328e-07
-1.111802e-05
-8.666508e-06
-1.123138e-05
-8.687955e-06
5.650508e-05
-9.921528e-07
-8.741258e-05
-2.841973e-05
1.599387e-06
-0.0007176105
5.605432e-06
8.480223e-06
-5.807075e-07
1.688458e-05
-3.753356e-05
0.0001306271
0.0001132941
0.0001285139
0.0001328964
-0.0009265159
1.316447e-05
1.385174e-06
-9.491266e-06
2.910681e-05
-5.772033e-05
-0.001179946
7.426593e-06
7.222775e-06
-1.081039e-05
4.849969e-05
-6.756883e-05
-0.001448751
8.486828e-06
7.408175e-06
-1.511114e-05
6.404786e-05
-8.296586e-05
7.252007e-06
9.838827e-06
8.103675e-05
-0.001743551
-2.002899e-05
-9.548336e-05
1.294307e-05
-3.398688e-06
5.079451e-06
-3.095929e-05
2.747921e-06
1.358753e-05
5.442044e-05
-0.0006354221
-4.379876e-06
0.002007418
-0.0007115771
-0.0007104595
-0.0003304739
0.0001529281
-0.01021954
-8.256562e-05
0.01049429
-1.464174e-05
0.003856833
0.03488822
-0.001138887
-0.00294102
-0.002934229
0.001071864
0.001484604
-0.003074926
0.0002156566
-0.003549105
9.290536e-05
0.006655848
0.03597452
-0.002824112
-0.003474535
-0.002708981
0.001245605
0.001783359
0.007953622
0.0370797
0.0004911715
-0.003842337
-0.003112282
0.0008236965
0.001155038
0.009957503
0.03650201
0.0003011039
-0.003866578
-0.002971033
0.0008488353
0.001251757
0.0375582
0.0002501078
-0.004001422
0.0007616291
0.01150544
-0.003108295
0.001082103
0.004814491
0.03047338
0.001111608
-0.007648836
-0.00973695
-0.007970297
-0.009577694
-0.0009180075
-0.0006589949
0.0004720964
-0.0003607968
0.009450019
0.03702947
0.0007961784
-0.0103997
-0.01024039
-0.01004622
-0.01047737
0.01034044
0.03619819
0.002807481
0.01083717
0.03625058
0.004726263
0.01307437
0.0374523
0.002562334
0.01458067
0.03713919
0.003194631
0.03717171
0.002458593
0.01724521
0.002049398
0.02780131
-0.0008338424
-0.0007163425
0.0002088732
0.001375123
0.0005888642
0.005120228
0.03390185
-0.0006731448
0.007927676
0.03368302
0.0002866299
0.01058043
0.03388116
0.0008034738
0.01343365
0.03459598
0.001007907
0.01601992
0.03458648
0.0009254483
0.03467339
0.0009480037
0.01856159
0.00248832
0.0255556
0.000206189
-0.001077061
-0.0001994033
0.0009324218
-0.0001047631
0.005397895
0.03121727
0.0002111733
0.008163646
0.03114923
0.0007230229
0.01066507
0.03164041
0.0007075201
0.01332196
0.03180331
0.001048586
0.0157691
0.03215164
0.000890301
0.03220814
0.0009731973
0.01816323
0.002012514
0.02347602
-0.0001516053
-0.0007911145
-5.893573e-05
0.000964119
0.000104605
0.005028495
0.02832794
2.158058e-05
0.00782408
0.02840865
0.0002733275
0.01051067
0.02909837
0.0001178441
0.01316513
0.02908006
0.0003036225
0.01577154
0.02955716
0.000190584
0.02970273
0.0003442404
0.01820163
0.00229147
0.02132881
6.041163e-05
-0.0008774105
-0.0001582135
0.0008489473
-1.799477e-05
0.005257991
0.02545783
9.451382e-05
0.008070106
0.02572333
0.000254531
0.01096394
0.02626538
0.0001923606
0.01361922
0.02644689
0.0001689235
0.01626209
0.0269189
9.971965e-05
0.02731779
0.0001584063
0.01866373
0.002343931
0.01897804
1.942765e-05
-0.0007372326
-8.887071e-05
0.0007663695
4.714424e-05
0.005359324
0.02253195
7.741027e-05
0.008260985
0.02292185
0.0001608735
0.01114112
0.02339591
0.0001236015
0.01393642
0.02363632
0.000123839
0.01664704
0.02420124
2.509752e-05
0.02477934
4.958478e-05
0.0191746
0.002540269
0.01653284
2.867924e-05
-0.0007063876
-0.0001077824
0.0006644346
2.598781e-05
0.005613118
0.01956876
9.680135e-05
0.008644989
0.01999917
0.000159727
0.01162295
0.02042237
0.0001147962
0.01449977
0.02076891
6.824237e-05
0.017311
0.02140113
-8.993015e-06
0.02213022
-1.691242e-05
0.01997383
0.002618512
0.01401259
1.081353e-05
-0.000625179
-9.663865e-05
0.0005682882
4.44585e-05
0.005772985
0.0165137
0.0001091273
0.008955693
0.01690902
0.0001516602
0.01206786
0.0173094
0.0001000374
0.01512183
0.01772057
3.498899e-05
0.01811813
0.01841467
-3.894832e-05
0.01927708
-5.943702e-05
0.02098657
0.002767075
2.835569e-05
0.01131754
0.0004726558
6.017744e-05
-0.0005443627
-8.884958e-05
0.006018569
0.0001084409
0.01336117
0.009348838
0.000114665
0.01366976
0.01264205
5.463036e-05
0.01401625
0.01591784
-3.676512e-05
0.01445819
0.01917724
-0.000108914
0.01517709
-0.000156924
0.01612129
0.02235855
3.917971e-05
1.281783e-06
-6.868961e-05
-0.0005020931
-7.371024e-07
2.712153e-06
3.914791e-05
2.412615e-06
-9.802666e-05
-0.002000259
-1.372734e-05
0.0001423989
-5.853709e-06
0.0001410862
-5.537254e-06
-5.499425e-05
-0.002090263
-1.695662e-05
-6.031461e-05
-0.002215168
-1.903095e-05
-7.116747e-05
-0.002355525
-2.196126e-05
-0.002533202
-2.375735e-05
-8.549798e-05
0.0001056569
-6.270847e-06
-3.092817e-05
-0.0004281066
3.906876e-06
0.000122102
0.0001048965
0.0001287433
-0.0001079459
-0.001935805
-8.267353e-06
0.0004936926
0.0004938037
0.0004932379
0.0004904003
3.435657e-05
-1.686982e-06
3.638913e-05
-4.025748e-06
-0.0001188847
-0.002005241
-1.138165e-05
-0.0001582493
-0.002072011
-1.19749e-05
-0.0002010271
-0.002195309
-1.89245e-05
-0.000250062
-0.002332072
-2.256356e-05
-0.002508183
-2.432857e-05
-0.0003009246
-0.0001010484
-0.001678691
-2.051802e-05
0.0004026086
0.0004847171
0.0003990508
0.0004830379
-0.000148393
-0.001885428
5.714686e-06
-0.0002262554
-0.001946207
-2.173175e-05
-0.0002831919
-0.002036783
-2.340045e-05
-0.0003591413
-0.002146206
-3.401792e-05
-0.0004365558
-0.002284529
-3.68114e-05
-0.002453056
-4.167218e-05
-0.0005242583
-0.000133656
-0.001531633
1.082169e-05
-0.0002075248
-0.001813183
-1.289824e-06
-0.0002989792
-0.001859621
-8.24024e-06
-0.0003954378
-0.001949997
-1.728842e-05
-0.0004999259
-0.002051266
-2.215745e-05
-0.0006138217
-0.002181652
-2.63845e-05
-0.002341482
-2.927151e-05
-0.0007370471
-0.0001007196
-0.001436343
-6.730825e-07
-0.0002366402
-0.001680754
-2.793258e-06
-0.0003631326
-0.001741343
-1.113761e-05
-0.0004959095
-0.001823963
-1.323539e-05
-0.0006338001
-0.00191976
-1.77731e-05
-0.0007799451
-0.002041147
-1.918017e-05
-0.002189943
-2.110504e-05
-0.0009375518
-0.0001310075
-0.0013061
1.269216e-06
-0.0002786759
-0.001537954
-3.898099e-06
-0.0004330314
-0.001591395
-6.82638e-06
-0.0005926838
-0.001667857