/*--------------------------------*- C++ -*----------------------------------*\
  =========                 |
  \\      /  F ield         | OpenFOAM: The Open Source CFD Toolbox
   \\    /   O peration     | Website:  https://openfoam.org
    \\  /    A nd           | Version:  7
     \\/     M anipulation  |
\*---------------------------------------------------------------------------*/
FoamFile
{
    version     2.0;
    format      ascii;
    class       volScalarField;
    location    "0.06";
    object      nut;
}
// * * * * * * * * * * * * * * * * * * * * * * * * * * * * * * * * * * * * * //

dimensions      [0 2 -1 0 0 0 0];

internalField   nonuniform List<scalar> 
109978
(
0.0006554632
0.0006375594
0.0006360191
0.0006358502
0.0006358608
0.0006360442
0.0006375917
0.0006056075
0.0006025497
0.0006021781
0.0006021907
0.0006024451
0.000636063
0.0006025637
0.0005990908
0.0005986162
0.0005986226
0.0005989294
0.0006358954
0.0006021824
0.0005986007
0.000598081
0.0005980803
0.0005984061
0.0006358711
0.0006021111
0.0005984949
0.0005979548
0.0005979485
0.0005982795
0.0006358737
0.0006020987
0.0005984712
0.000597923
0.0005979121
0.0005982443
0.0006358838
0.0006021049
0.0005984708
0.0005979182
0.0005979059
0.0005982388
0.0006358979
0.0006021167
0.0005984811
0.0005979273
0.0005979135
0.0005982463
0.0006359145
0.0006021327
0.000598496
0.0005979413
0.0005979271
0.0005982598
0.0006359335
0.0006021513
0.0005985143
0.000597959
0.0005979445
0.0005982773
0.0006359547
0.0006021724
0.000598535
0.0005979795
0.0005979645
0.0005982976
0.000635978
0.0006021957
0.0005985582
0.0005980026
0.0005979875
0.0005983205
0.0006360036
0.0006022214
0.0005985837
0.000598028
0.0005980128
0.0005983457
0.0006360314
0.0006022495
0.0005986117
0.0005980558
0.0005980405
0.0005983731
0.0006360617
0.00060228
0.0005986421
0.000598086
0.0005980707
0.0005984031
0.0006360943
0.0006023131
0.0005986751
0.000598119
0.0005981035
0.0005984357
0.0006361297
0.000602349
0.0005987111
0.0005981551
0.0005981399
0.0005984716
0.0006361679
0.0006023884
0.000598751
0.0005981953
0.0005981801
0.0005985118
0.0006362097
0.0006024328
0.000598797
0.0005982425
0.0005982274
0.0005985594
0.0006362575
0.0006024881
0.0005988575
0.0005983059
0.0005982918
0.0005986239
0.0006363239
0.0006025798
0.0005989652
0.0005984213
0.0005984097
0.0005987403
0.0006364598
0.000602789
0.000599217
0.0005986912
0.0005986799
0.0005989978
0.0001008072
0.000603187
0.0005996816
0.000599183
0.00059916
0.0005994268
0.0005968656
0.0005962302
0.0005962759
0.0005962882
0.0005962844
0.000596303
0.0001007563
0.0001007637
0.0001007638
0.0001007638
0.0001007638
0.0001007638
0.0001007569
0.0001007637
0.0001007638
0.0001007638
0.0001007638
0.0001007638
0.0001007567
0.0001007637
0.0001007638
0.0001007638
0.0001007638
0.0001007638
0.0001007567
0.0001007637
0.0001007637
0.0001007637
0.0001007637
0.0001007637
0.0001007566
0.0001007636
0.0001007637
0.0001007637
0.0001007637
0.0001007637
0.0001007565
0.0001007636
0.0001007636
0.0001007636
0.0001007636
0.0001007636
0.0001007565
0.0001007635
0.0001007636
0.0001007636
0.0001007636
0.0001007635
0.0001007563
0.0001007635
0.0001007635
0.0001007635
0.0001007635
0.0001007635
0.0001007562
0.0001007634
0.0001007634
0.0001007634
0.0001007634
0.0001007634
0.0001007561
0.0001007634
0.0001007634
0.0001007633
0.0001007633
0.0001007633
0.0001007559
0.0001007633
0.0001007633
0.0001007633
0.0001007632
0.0001007632
0.0001007558
0.0001007632
0.0001007632
0.0001007632
0.0001007631
0.0001007631
0.0001007556
0.0001007631
0.0001007631
0.0001007631
0.000100763
0.000100763
0.0001007554
0.000100763
0.000100763
0.000100763
0.0001007629
0.0001007629
0.0001007552
0.0001007629
0.0001007629
0.0001007628
0.0001007628
0.0001007627
0.0001007549
0.0001007628
0.0001007628
0.0001007627
0.0001007627
0.0001007626
0.0001007547
0.0001007627
0.0001007627
0.0001007626
0.0001007625
0.0001007625
0.0001007544
0.0001007626
0.0001007625
0.0001007625
0.0001007624
0.0001007623
0.0001007541
0.0001007624
0.0001007624
0.0001007623
0.0001007622
0.0001007622
0.0001007538
0.0001007623
0.0001007623
0.0001007622
0.0001007621
0.000100762
0.0001007535
0.0001007622
0.0001007621
0.000100762
0.0001007619
0.0001007618
0.0001007531
0.000100762
0.000100762
0.0001007618
0.0001007617
0.0001007616
0.0001007529
0.0001007619
0.0001007618
0.0001007617
0.0001007616
0.0001007614
0.0005979342
0.0005965808
0.0005966803
0.0005967261
0.0005967231
0.0005967018
0.0001007566
0.0001007638
0.0001007638
0.0001007638
0.0001007639
0.0001007639
0.0001007576
0.0001007638
0.0001007638
0.0001007639
0.0001007639
0.0001007639
0.0001007575
0.0001007638
0.0001007638
0.0001007638
0.0001007638
0.0001007639
0.0001007575
0.0001007637
0.0001007637
0.0001007638
0.0001007638
0.0001007638
0.0001007574
0.0001007637
0.0001007637
0.0001007637
0.0001007637
0.0001007637
0.0001007573
0.0001007636
0.0001007636
0.0001007637
0.0001007637
0.0001007637
0.0001007572
0.0001007636
0.0001007636
0.0001007636
0.0001007636
0.0001007636
0.0001007571
0.0001007635
0.0001007635
0.0001007635
0.0001007635
0.0001007635
0.000100757
0.0001007635
0.0001007635
0.0001007635
0.0001007635
0.0001007634
0.0001007569
0.0001007634
0.0001007634
0.0001007634
0.0001007634
0.0001007634
0.0001007567
0.0001007633
0.0001007633
0.0001007633
0.0001007633
0.0001007633
0.0001007566
0.0001007632
0.0001007632
0.0001007632
0.0001007632
0.0001007632
0.0001007564
0.0001007632
0.0001007631
0.0001007631
0.0001007631
0.000100763
0.0001007562
0.0001007631
0.000100763
0.000100763
0.000100763
0.0001007629
0.000100756
0.000100763
0.0001007629
0.0001007629
0.0001007628
0.0001007628
0.0001007557
0.0001007629
0.0001007628
0.0001007628
0.0001007627
0.0001007627
0.0001007555
0.0001007627
0.0001007627
0.0001007626
0.0001007626
0.0001007625
0.0001007552
0.0001007626
0.0001007626
0.0001007625
0.0001007624
0.0001007624
0.0001007549
0.0001007625
0.0001007624
0.0001007624
0.0001007623
0.0001007622
0.0001007546
0.0001007624
0.0001007623
0.0001007622
0.0001007621
0.0001007621
0.0001007543
0.0001007622
0.0001007621
0.000100762
0.000100762
0.0001007619
0.000100754
0.0001007621
0.000100762
0.0001007619
0.0001007618
0.0001007617
0.0001007536
0.0001007619
0.0001007618
0.0001007617
0.0001007616
0.0001007615
0.0005980709
0.0005967698
0.0005968886
0.00059695
0.0005969445
0.0005969048
0.0001007566
0.0001007638
0.0001007638
0.0001007639
0.0001007639
0.0001007639
0.0001007576
0.0001007638
0.0001007638
0.0001007639
0.0001007639
0.0001007639
0.0001007575
0.0001007638
0.0001007638
0.0001007638
0.0001007638
0.0001007639
0.0001007575
0.0001007638
0.0001007638
0.0001007638
0.0001007638
0.0001007638
0.0001007574
0.0001007637
0.0001007637
0.0001007637
0.0001007637
0.0001007637
0.0001007573
0.0001007637
0.0001007637
0.0001007637
0.0001007637
0.0001007637
0.0001007572
0.0001007636
0.0001007636
0.0001007636
0.0001007636
0.0001007636
0.0001007571
0.0001007636
0.0001007635
0.0001007635
0.0001007635
0.0001007635
0.000100757
0.0001007635
0.0001007635
0.0001007635
0.0001007634
0.0001007634
0.0001007569
0.0001007634
0.0001007634
0.0001007634
0.0001007634
0.0001007634
0.0001007567
0.0001007634
0.0001007633
0.0001007633
0.0001007633
0.0001007633
0.0001007566
0.0001007633
0.0001007632
0.0001007632
0.0001007632
0.0001007631
0.0001007564
0.0001007632
0.0001007631
0.0001007631
0.0001007631
0.000100763
0.0001007562
0.0001007631
0.0001007631
0.000100763
0.000100763
0.0001007629
0.000100756
0.000100763
0.0001007629
0.0001007629
0.0001007628
0.0001007628
0.0001007557
0.0001007629
0.0001007628
0.0001007628
0.0001007627
0.0001007627
0.0001007555
0.0001007628
0.0001007627
0.0001007626
0.0001007626
0.0001007625
0.0001007552
0.0001007627
0.0001007626
0.0001007625
0.0001007624
0.0001007624
0.0001007549
0.0001007625
0.0001007624
0.0001007624
0.0001007623
0.0001007622
0.0001007546
0.0001007624
0.0001007623
0.0001007622
0.0001007621
0.0001007621
0.0001007543
0.0001007623
0.0001007622
0.000100762
0.000100762
0.0001007619
0.000100754
0.0001007621
0.000100762
0.0001007619
0.0001007618
0.0001007617
0.0001007536
0.0001007619
0.0001007618
0.0001007617
0.0001007616
0.0001007615
0.0005980993
0.0005968198
0.0005969526
0.0005970166
0.0005970118
0.000596967
0.0001007566
0.0001007638
0.0001007639
0.0001007639
0.0001007639
0.0001007639
0.0001007576
0.0001007639
0.0001007639
0.0001007639
0.0001007639
0.0001007639
0.0001007576
0.0001007638
0.0001007638
0.0001007638
0.0001007638
0.0001007639
0.0001007575
0.0001007638
0.0001007638
0.0001007638
0.0001007638
0.0001007638
0.0001007574
0.0001007637
0.0001007637
0.0001007637
0.0001007637
0.0001007637
0.0001007574
0.0001007637
0.0001007637
0.0001007637
0.0001007637
0.0001007637
0.0001007573
0.0001007637
0.0001007636
0.0001007636
0.0001007636
0.0001007636
0.0001007572
0.0001007636
0.0001007636
0.0001007635
0.0001007635
0.0001007635
0.000100757
0.0001007635
0.0001007635
0.0001007635
0.0001007635
0.0001007634
0.0001007569
0.0001007635
0.0001007634
0.0001007634
0.0001007634
0.0001007634
0.0001007568
0.0001007634
0.0001007634
0.0001007633
0.0001007633
0.0001007633
0.0001007566
0.0001007633
0.0001007633
0.0001007632
0.0001007632
0.0001007631
0.0001007564
0.0001007632
0.0001007632
0.0001007631
0.0001007631
0.000100763
0.0001007562
0.0001007631
0.0001007631
0.000100763
0.000100763
0.0001007629
0.000100756
0.000100763
0.000100763
0.0001007629
0.0001007628
0.0001007628
0.0001007558
0.0001007629
0.0001007629
0.0001007628
0.0001007627
0.0001007627
0.0001007555
0.0001007628
0.0001007627
0.0001007627
0.0001007626
0.0001007625
0.0001007552
0.0001007627
0.0001007626
0.0001007625
0.0001007624
0.0001007624
0.000100755
0.0001007626
0.0001007625
0.0001007624
0.0001007623
0.0001007622
0.0001007547
0.0001007624
0.0001007623
0.0001007622
0.0001007621
0.0001007621
0.0001007543
0.0001007623
0.0001007622
0.0001007621
0.000100762
0.0001007619
0.000100754
0.0001007621
0.000100762
0.0001007619
0.0001007618
0.0001007617
0.0001007536
0.000100762
0.0001007619
0.0001007617
0.0001007616
0.0001007615
0.0005980928
0.0005968251
0.0005969517
0.0005970177
0.0005970135
0.0005969681
0.0001007566
0.0001007638
0.0001007639
0.0001007639
0.0001007639
0.0001007639
0.0001007576
0.0001007639
0.0001007639
0.0001007639
0.0001007639
0.0001007639
0.0001007575
0.0001007638
0.0001007638
0.0001007638
0.0001007638
0.0001007639
0.0001007575
0.0001007638
0.0001007638
0.0001007638
0.0001007638
0.0001007638
0.0001007574
0.0001007637
0.0001007637
0.0001007637
0.0001007637
0.0001007637
0.0001007574
0.0001007637
0.0001007637
0.0001007637
0.0001007637
0.0001007637
0.0001007573
0.0001007637
0.0001007636
0.0001007636
0.0001007636
0.0001007636
0.0001007572
0.0001007636
0.0001007636
0.0001007635
0.0001007635
0.0001007635
0.000100757
0.0001007635
0.0001007635
0.0001007635
0.0001007635
0.0001007634
0.0001007569
0.0001007635
0.0001007634
0.0001007634
0.0001007634
0.0001007634
0.0001007568
0.0001007634
0.0001007634
0.0001007633
0.0001007633
0.0001007633
0.0001007566
0.0001007633
0.0001007633
0.0001007632
0.0001007632
0.0001007631
0.0001007564
0.0001007632
0.0001007632
0.0001007631
0.0001007631
0.000100763
0.0001007562
0.0001007631
0.0001007631
0.000100763
0.000100763
0.0001007629
0.000100756
0.000100763
0.000100763
0.0001007629
0.0001007628
0.0001007628
0.0001007558
0.0001007629
0.0001007629
0.0001007628
0.0001007627
0.0001007627
0.0001007555
0.0001007628
0.0001007627
0.0001007627
0.0001007626
0.0001007625
0.0001007552
0.0001007627
0.0001007626
0.0001007625
0.0001007624
0.0001007624
0.000100755
0.0001007626
0.0001007625
0.0001007624
0.0001007623
0.0001007622
0.0001007547
0.0001007624
0.0001007623
0.0001007622
0.0001007621
0.0001007621
0.0001007543
0.0001007623
0.0001007622
0.0001007621
0.000100762
0.0001007619
0.000100754
0.0001007621
0.000100762
0.0001007619
0.0001007618
0.0001007617
0.0001007536
0.000100762
0.0001007619
0.0001007617
0.0001007616
0.0001007615
0.0005980903
0.0005968008
0.0005969194
0.0005969853
0.0005969788
0.0005969363
0.0001007566
0.0001007638
0.0001007639
0.0001007639
0.0001007639
0.0001007639
0.0001007576
0.0001007638
0.0001007639
0.0001007639
0.0001007639
0.0001007639
0.0001007575
0.0001007638
0.0001007638
0.0001007638
0.0001007638
0.0001007639
0.0001007575
0.0001007638
0.0001007638
0.0001007638
0.0001007638
0.0001007638
0.0001007574
0.0001007637
0.0001007637
0.0001007637
0.0001007637
0.0001007637
0.0001007573
0.0001007637
0.0001007637
0.0001007637
0.0001007637
0.0001007637
0.0001007573
0.0001007637
0.0001007636
0.0001007636
0.0001007636
0.0001007636
0.0001007571
0.0001007636
0.0001007636
0.0001007636
0.0001007635
0.0001007635
0.000100757
0.0001007635
0.0001007635
0.0001007635
0.0001007635
0.0001007634
0.0001007569
0.0001007635
0.0001007634
0.0001007634
0.0001007634
0.0001007634
0.0001007567
0.0001007634
0.0001007634
0.0001007633
0.0001007633
0.0001007633
0.0001007566
0.0001007633
0.0001007633
0.0001007632
0.0001007632
0.0001007632
0.0001007564
0.0001007632
0.0001007632
0.0001007631
0.0001007631
0.000100763
0.0001007562
0.0001007631
0.0001007631
0.000100763
0.000100763
0.0001007629
0.000100756
0.000100763
0.000100763
0.0001007629
0.0001007629
0.0001007628
0.0001007557
0.0001007629
0.0001007629
0.0001007628
0.0001007627
0.0001007627
0.0001007555
0.0001007628
0.0001007627
0.0001007627
0.0001007626
0.0001007625
0.0001007552
0.0001007627
0.0001007626
0.0001007625
0.0001007625
0.0001007624
0.0001007549
0.0001007626
0.0001007625
0.0001007624
0.0001007623
0.0001007622
0.0001007546
0.0001007624
0.0001007623
0.0001007622
0.0001007621
0.0001007621
0.0001007543
0.0001007623
0.0001007622
0.0001007621
0.000100762
0.0001007619
0.000100754
0.0001007621
0.000100762
0.0001007619
0.0001007618
0.0001007617
0.0001007536
0.000100762
0.0001007619
0.0001007617
0.0001007616
0.0001007615
0.0005980044
0.0005966469
0.0005967436
0.0005967997
0.0005967935
0.0005967606
0.0001007566
0.0001007638
0.0001007638
0.0001007638
0.0001007639
0.0001007639
0.0001007576
0.0001007638
0.0001007639
0.0001007639
0.0001007639
0.0001007639
0.0001007575
0.0001007638
0.0001007638
0.0001007638
0.0001007639
0.0001007639
0.0001007575
0.0001007638
0.0001007638
0.0001007638
0.0001007638
0.0001007638
0.0001007574
0.0001007637
0.0001007638
0.0001007638
0.0001007637
0.0001007637
0.0001007574
0.0001007637
0.0001007637
0.0001007637
0.0001007637
0.0001007637
0.0001007573
0.0001007636
0.0001007636
0.0001007636
0.0001007636
0.0001007636
0.0001007572
0.0001007636
0.0001007636
0.0001007636
0.0001007635
0.0001007635
0.000100757
0.0001007635
0.0001007635
0.0001007635
0.0001007635
0.0001007634
0.0001007569
0.0001007635
0.0001007635
0.0001007634
0.0001007634
0.0001007634
0.0001007567
0.0001007634
0.0001007634
0.0001007633
0.0001007633
0.0001007633
0.0001007566
0.0001007633
0.0001007633
0.0001007632
0.0001007632
0.0001007632
0.0001007564
0.0001007632
0.0001007632
0.0001007631
0.0001007631
0.000100763
0.0001007562
0.0001007631
0.0001007631
0.000100763
0.000100763
0.0001007629
0.000100756
0.000100763
0.000100763
0.0001007629
0.0001007629
0.0001007628
0.0001007557
0.0001007629
0.0001007629
0.0001007628
0.0001007627
0.0001007627
0.0001007555
0.0001007628
0.0001007628
0.0001007627
0.0001007626
0.0001007625
0.0001007552
0.0001007627
0.0001007626
0.0001007626
0.0001007625
0.0001007624
0.0001007549
0.0001007626
0.0001007625
0.0001007624
0.0001007623
0.0001007622
0.0001007546
0.0001007624
0.0001007624
0.0001007623
0.0001007622
0.0001007621
0.0001007543
0.0001007623
0.0001007622
0.0001007621
0.000100762
0.0001007619
0.000100754
0.0001007621
0.000100762
0.0001007619
0.0001007618
0.0001007617
0.0001007536
0.000100762
0.0001007619
0.0001007618
0.0001007616
0.0001007615
0.0005983029
0.0005974386
0.0005975437
0.0005975737
0.0005975704
0.0005975687
0.0001007565
0.0001007638
0.0001007638
0.0001007638
0.0001007638
0.0001007638
0.0001007574
0.0001007638
0.0001007638
0.0001007638
0.0001007638
0.0001007639
0.0001007573
0.0001007638
0.0001007638
0.0001007638
0.0001007638
0.0001007638
0.0001007573
0.0001007638
0.0001007638
0.0001007638
0.0001007638
0.0001007638
0.0001007572
0.0001007638
0.0001007638
0.0001007637
0.0001007637
0.0001007637
0.0001007571
0.0001007637
0.0001007637
0.0001007637
0.0001007636
0.0001007636
0.000100757
0.0001007637
0.0001007637
0.0001007636
0.0001007636
0.0001007636
0.0001007569
0.0001007636
0.0001007636
0.0001007635
0.0001007635
0.0001007635
0.0001007568
0.0001007636
0.0001007635
0.0001007635
0.0001007634
0.0001007634
0.0001007567
0.0001007635
0.0001007635
0.0001007634
0.0001007633
0.0001007633
0.0001007565
0.0001007634
0.0001007634
0.0001007633
0.0001007632
0.0001007632
0.0001007563
0.0001007634
0.0001007633
0.0001007632
0.0001007631
0.0001007631
0.0001007561
0.0001007633
0.0001007632
0.0001007631
0.000100763
0.000100763
0.0001007559
0.0001007632
0.0001007631
0.000100763
0.0001007629
0.0001007629
0.0001007557
0.0001007631
0.000100763
0.0001007629
0.0001007628
0.0001007627
0.0001007555
0.000100763
0.0001007629
0.0001007628
0.0001007627
0.0001007626
0.0001007553
0.0001007629
0.0001007628
0.0001007626
0.0001007626
0.0001007625
0.000100755
0.0001007627
0.0001007626
0.0001007625
0.0001007624
0.0001007623
0.0001007547
0.0001007626
0.0001007625
0.0001007624
0.0001007623
0.0001007622
0.0001007544
0.0001007625
0.0001007624
0.0001007622
0.0001007621
0.000100762
0.0001007541
0.0001007623
0.0001007622
0.0001007621
0.0001007619
0.0001007618
0.0001007537
0.0001007622
0.0001007621
0.0001007619
0.0001007618
0.0001007616
0.0001007529
0.000100762
0.0001007619
0.0001007617
0.0001007616
0.0001007614
0.0002107795
0.000208319
0.0002082909
0.0002082863
0.0002082761
0.0002082684
0.0001007334
0.000100814
0.0001008144
0.0001008145
0.0001008146
0.0001008146
0.0001008139
0.000100735
0.0001008115
0.0001008115
0.000100812
0.000100812
0.000100812
0.0001008114
0.000100735
0.000100811
0.0001008112
0.0001008118
0.0001008119
0.0001008119
0.0001008113
0.0001007349
0.0001008111
0.0001008112
0.0001008118
0.0001008119
0.0001008119
0.0001008113
0.0001007347
0.000100811
0.0001008111
0.0001008117
0.0001008118
0.0001008118
0.0001008112
0.0001007345
0.0001008109
0.0001008111
0.0001008117
0.0001008118
0.0001008117
0.0001008111
0.0001007342
0.0001008108
0.000100811
0.0001008116
0.0001008117
0.0001008116
0.0001008109
0.000100734
0.0001008107
0.0001008109
0.0001008115
0.0001008115
0.0001008115
0.0001008108
0.0001007336
0.0001008106
0.0001008108
0.0001008114
0.0001008114
0.0001008113
0.0001008106
0.0001007333
0.0001008105
0.0001008108
0.0001008113
0.0001008113
0.0001008112
0.0001008105
0.0001007329
0.0001008104
0.0001008106
0.0001008112
0.0001008112
0.000100811
0.0001008103
0.0001007325
0.0001008103
0.0001008105
0.0001008111
0.000100811
0.0001008109
0.0001008101
0.000100732
0.0001008101
0.0001008104
0.0001008109
0.0001008109
0.0001008107
0.0001008099
0.0001007315
0.00010081
0.0001008103
0.0001008108
0.0001008108
0.0001008106
0.0001008097
0.0001007309
0.0001008098
0.0001008102
0.0001008107
0.0001008106
0.0001008104
0.0001008095
0.0001007303
0.0001008096
0.0001008101
0.0001008105
0.0001008104
0.0001008102
0.0001008092
0.0001007297
0.0001008095
0.0001008099
0.0001008104
0.0001008103
0.00010081
0.000100809
0.000100729
0.0001008093
0.0001008098
0.0001008103
0.0001008101
0.0001008098
0.0001008087
0.0001007283
0.0001008091
0.0001008096
0.0001008101
0.0001008099
0.0001008095
0.0001008085
0.0001007275
0.0001008089
0.0001008095
0.0001008099
0.0001008097
0.0001008093
0.0001008082
0.0001007267
0.0001008087
0.0001008093
0.0001008098
0.0001008095
0.000100809
0.000100808
0.0001007258
0.0001008085
0.0001008092
0.0001008096
0.0001008092
0.0001008088
0.0001008077
0.0001007247
0.0006370205
0.000100809
0.0001008094
0.0001008089
0.0001008085
0.0001008073
0.0003026364
0.0001869304
0.0001007331
0.0001007596
0.0003044751
0.0002929899
0.0001007405
0.0001007638
0.0001007352
0.000100764
0.0002927197
0.0002924763
0.0001007444
0.0001007637
0.000100735
0.0001007635
0.0002924815
0.000292453
0.0001007443
0.0001007636
0.0001007348
0.0001007634
0.0002924675
0.0002924553
0.0001007443
0.0001007635
0.0001007348
0.0001007633
0.0002924753
0.0002924638
0.0001007441
0.0001007634
0.0001007346
0.0001007633
0.000292487
0.0002924753
0.000100744
0.0001007634
0.0001007344
0.0001007633
0.0002925016
0.0002924892
0.0001007438
0.0001007634
0.0001007342
0.0001007633
0.0002925185
0.0002925053
0.0001007436
0.0001007634
0.000100734
0.0001007633
0.0002925375
0.0002925236
0.0001007434
0.0001007633
0.0001007337
0.0001007633
0.0002925588
0.0002925441
0.0001007431
0.0001007633
0.0001007334
0.0001007632
0.0002925822
0.000292567
0.0001007428
0.0001007633
0.0001007331
0.0001007632
0.0002926079
0.0002925921
0.0001007425
0.0001007632
0.0001007328
0.0001007631
0.000292636
0.0002926196
0.0001007422
0.0001007632
0.0001007324
0.0001007631
0.0002926665
0.0002926495
0.0001007418
0.0001007631
0.000100732
0.0001007631
0.0002926994
0.000292682
0.0001007414
0.000100763
0.0001007316
0.000100763
0.000292735
0.000292717
0.0001007409
0.0001007629
0.0001007312
0.0001007629
0.0002927732
0.0002927547
0.0001007405
0.0001007629
0.0001007307
0.0001007629
0.0002928142
0.0002927952
0.00010074
0.0001007628
0.0001007302
0.0001007628
0.0002928582
0.0002928389
0.0001007394
0.0001007627
0.0001007296
0.0001007627
0.0002929055
0.0002928862
0.0001007389
0.0001007626
0.0001007289
0.0001007626
0.000292957
0.0002929413
0.0001007383
0.0001007624
0.0001007282
0.0001007625
0.0002930189
0.0002930315
0.0001007376
0.0001007623
0.0001007274
0.0001007625
0.0002931364
0.0001015228
0.0001007248
0.0001007623
0.0001007388
0.0001007775
0.0002113253
0.0001007416
0.0001007771
0.0002089527
0.0001007357
0.0001007777
0.0002089592
0.0001007453
0.0001007781
0.0002089176
0.0001007357
0.0001007782
0.0002089329
0.0001007453
0.0001007782
0.0002089328
0.0001007357
0.0001007781
0.0002089425
0.0001007453
0.0001007781
0.0002089273
0.0001007357
0.000100778
0.0002089287
0.0001007453
0.0001007781
0.0002089305
0.0001007358
0.000100778
0.0002089331
0.0001007453
0.0001007781
0.0002089486
0.0001007358
0.0001007781
0.0002089305
0.0001007453
0.0001007782
0.0002089422
0.0001007357
0.0001007782
0.0002089333
0.0001007452
0.0001007777
0.0002113294
0.0001007343
0.0001007771
0.0001869343
0.000100743
0.0001007597
0.0003026375
0.000100775
0.0001007353
0.000100764
0.0003044767
0.0002929908
0.0001007748
0.0001007351
0.0001007635
0.0002927199
0.0002924764
0.0001007747
0.000100735
0.0001007634
0.0002924831
0.0002924547
0.0001007747
0.0001007346
0.0001007633
0.0002924879
0.0002924742
0.0001007748
0.0001007344
0.0001007633
0.0002925009
0.0002924882
0.0001007749
0.0001007341
0.0001007633
0.0002925179
0.0002925044
0.0001007749
0.0001007339
0.0001007633
0.000292537
0.0002925227
0.000100775
0.0001007336
0.0001007632
0.0002925582
0.0002925432
0.0001007751
0.0001007333
0.0001007632
0.0002925815
0.0002925658
0.0001007752
0.000100733
0.0001007632
0.0002926072
0.0002925912
0.0001007753
0.0001007326
0.0001007631
0.0002926354
0.0002926187
0.0001007755
0.0001007322
0.0001007631
0.0002926659
0.000292649
0.0001007756
0.0001007318
0.000100763
0.000292699
0.0002926811
0.0001007757
0.0001007314
0.0001007629
0.0002927344
0.0002927161
0.0001007759
0.0001007309
0.0001007629
0.0002927726
0.0002927538
0.0001007761
0.0001007304
0.0001007628
0.0002928135
0.0002927934
0.0001007762
0.0001007298
0.0001007627
0.0002928567
0.0002928368
0.0001007766
0.0001007284
0.0001007626
0.0002929574
0.0002929398
0.0001007768
0.0001007276
0.0001007625
0.0002930196
0.0002930313
0.0001007623
0.0001007386
0.0001007624
0.0002931371
0.0001015256
0.0001008613
0.0001443703
0.000304559
0.0002932175
0.0002107778
0.000208361
0.0001007599
0.0001007594
0.0002928921
0.0002926907
0.0002083174
0.0002083072
0.0001007592
0.0001007594
0.0002926421
0.0002926543
0.0002082898
0.0002082979
0.0001007592
0.0001007595
0.0002926177
0.0002926423
0.0002082853
0.0002082881
0.0001007592
0.0001007595
0.0002926093
0.0002926489
0.0002082749
0.0002082774
0.0001007593
0.0001007596
0.0002926296
0.0002082669
0.0001007593
0.000100786
0.0001419548
0.0001007847
0.0001417381
0.0001007852
0.0001416692
0.0001007867
0.0001416638
0.0001007856
0.0001416712
0.0001007871
0.0001416711
0.0001007857
0.0001416787
0.0001007871
0.0001416788
0.000100786
0.0001416896
0.0001007874
0.0001416898
0.0001007864
0.0001417026
0.0001007878
0.0001417029
0.0001007868
0.0001417179
0.0001007882
0.0001417183
0.0001007873
0.0001417356
0.0001007886
0.000141736
0.0001007879
0.0001417558
0.0001007892
0.0001417562
0.0001007885
0.0001417784
0.0001007897
0.0001417787
0.0001007891
0.0001418034
0.0001007904
0.0001418037
0.0001007899
0.000141831
0.0001007911
0.0001418312
0.0001007907
0.0001418612
0.0001007919
0.0001418613
0.0001007916
0.0001418941
0.0001007928
0.000141894
0.0001007926
0.0001419297
0.0001007938
0.0001419295
0.0001007936
0.0001419681
0.0001007948
0.0001419677
0.0001007948
0.0001420094
0.000100796
0.0001420089
0.0001007961
0.0001420538
0.0001007973
0.0001420531
0.0001007976
0.0001421013
0.0001007988
0.0001421003
0.0001007991
0.0001421522
0.0001008003
0.0001421508
0.0001008008
0.0001422064
0.0001008021
0.0001422047
0.0001008027
0.0001422645
0.000100804
0.0001422627
0.0001008048
0.0001423293
0.0001008061
0.0001423352
0.000100918
0.0001009114
0.0001009229
0.0001009247
0.0001009045
0.0001009328
0.0001009261
0.0001009232
0.0001009159
0.0001009313
0.0001009206
0.0001009248
0.0001009226
0.0001009202
0.0001009271
0.0001009146
0.0001008792
0.0001008977
0.0002083616
0.0001007599
0.0001007594
0.0003045596
0.0002932139
0.0002083073
0.0001007596
0.0001007595
0.0002928893
0.000292688
0.0002082986
0.0001007596
0.0001007595
0.0002926407
0.000292654
0.0002082882
0.0001007596
0.0001007596
0.0002926158
0.0002926392
0.0002082776
0.0001007597
0.0001007596
0.0002926065
0.0002926474
0.0001007598
0.0002926273
0.0001007746
0.0001007349
0.0001007633
0.0002924678
0.0002924565
0.0001007747
0.0001007347
0.0001007634
0.0002924771
0.0002924644
0.0001007764
0.0001007291
0.0001007629
0.0002929037
0.0002928867
0.0001008594
0.0001422753
0.0001008953
0.0001471358
0.0001007713
0.0001421283
0.000100774
0.0001471049
0.0001008832
0.0001009023
0.000100785
0.0001416672
0.0001007875
0.0001417146
0.0001007855
0.0001416679
0.0001007871
0.0001416658
0.0001007856
0.0001416746
0.0001007872
0.0001416725
0.0001007857
0.000141684
0.0001007876
0.0001416811
0.0001007861
0.0001416958
0.0001007879
0.0001416928
0.0001007864
0.0001417099
0.0001007884
0.0001417066
0.0001007868
0.0001417263
0.0001007889
0.0001417229
0.0001007873
0.0001417451
0.0001007895
0.0001417415
0.0001007878
0.0001417662
0.0001007901
0.0001417625
0.0001007884
0.0001417898
0.0001007908
0.0001417859
0.000100789
0.0001418158
0.0001007916
0.0001418119
0.0001007897
0.0001418443
0.0001007924
0.0001418404
0.0001007904
0.0001418754
0.0001007933
0.0001418716
0.0001007913
0.0001419091
0.0001007943
0.0001419054
0.0001007922
0.0001419455
0.0001007954
0.000141942
0.0001007932
0.0001419848
0.0001007967
0.0001419815
0.0001007944
0.000142027
0.000100798
0.000142024
0.0001007956
0.0001420722
0.0001007995
0.0001420695
0.000100797
0.0001421206
0.0001008011
0.0001421182
0.0001007984
0.0001421723
0.0001008028
0.0001421703
0.0001008001
0.0001422275
0.0001008048
0.000142226
0.0001008019
0.0001422883
0.0001008069
0.0001422859
0.0001008039
0.000102669
0.0001423669
0.0001008357
0.0001009242
0.0001009241
0.0001009227
0.0001009063
0.0001009283
0.0001009256
0.0001009146
0.0001009248
0.0001009238
0.0001009208
0.0001009213
0.0001009155
0.0001009154
0.0001009377
0.000100915
0.0001009193
0.0001008614
0.0001443772
0.0001008597
0.0001422758
0.0001008954
0.0001471422
0.0001007713
0.0001421274
0.0001007737
0.000147104
0.000100786
0.0001419528
0.0001007848
0.0001417373
0.000100785
0.0001416666
0.0001007874
0.0001417139
0.0001007852
0.0001416684
0.0001007869
0.0001416635
0.0001007855
0.0001416664
0.0001007869
0.0001416663
0.0001007855
0.0001416699
0.0001007872
0.0001416703
0.0001007864
0.0001417024
0.0001007878
0.0001417025
0.0001007864
0.0001417095
0.0001007882
0.0001417062
0.0001007868
0.0001417174
0.0001007883
0.0001417178
0.0001007868
0.0001417259
0.0001007887
0.0001417224
0.0001007873
0.0001417353
0.0001007888
0.0001417357
0.0001007873
0.0001417447
0.0001007892
0.000141741
0.0001007879
0.0001417554
0.0001007893
0.0001417558
0.0001007878
0.0001417658
0.0001007899
0.0001417621
0.0001007885
0.000141778
0.0001007898
0.0001417783
0.0001007883
0.0001417894
0.0001007906
0.0001417855
0.0001007898
0.0001418306
0.0001007911
0.0001418308
0.0001007897
0.0001418439
0.0001007921
0.00014184
0.0001007907
0.0001418608
0.000100792
0.0001418609
0.0001007904
0.0001418749
0.000100793
0.0001418712
0.0001007925
0.0001419295
0.0001007937
0.0001419291
0.0001007922
0.0001419451
0.0001007951
0.0001419416
0.0001007931
0.0001419844
0.0001007963
0.0001419811
0.0001007948
0.000142009
0.0001007961
0.0001420085
0.0001007944
0.0001420266
0.0001007977
0.0001420236
0.0001007961
0.0001420534
0.0001007974
0.0001420663
0.0001008027
0.0001422777
0.000100804
0.0001422618
0.0001008019
0.0001422894
0.0001008065
0.0001422851
0.0001008048
0.0001423295
0.0001008062
0.0001423373
0.000100804
0.000145685
0.0001423668
0.0001008358
0.0001825452
0.0001680827
0.0001735077
0.0001730273
0.0001735003
0.0001728395
0.0001733336
0.0001733425
0.000173302
0.0001731225
0.0001735431
0.0001727819
0.0001730828
0.0001737738
0.0001731303
0.0001733002
0.0001744354
0.0001744322
0.0001729874
0.0001726179
0.0001729745
0.0001732824
0.0001734351
0.0001728381
0.0001737466
0.0001744416
0.0001741182
0.0001737817
0.0001727224
0.0001728282
0.00017291
0.0001740821
0.0001722935
0.0001725926
0.0001728822
0.000173071
0.0001735628
0.0001727359
0.000182109
0.0001680744
0.0001585643
0.0001574674
0.0001584151
0.0001575497
0.0001008996
0.0001477087
0.0001009086
0.0001477191
0.0001008991
0.0001476969
0.0001476987
0.0001009056
0.0001008994
0.0001477129
0.0001009061
0.0001477087
0.0001008997
0.0001477156
0.0001477113
0.0001009071
0.0001007856
0.0001416665
0.000100787
0.0001416709
0.0001009024
0.0001477469
0.0001009097
0.0001477429
0.0001009032
0.0001477569
0.0001009102
0.000147753
0.0001009037
0.0001477626
0.000147758
0.0001009117
0.0001009047
0.0001477736
0.0001009118
0.0001477697
0.0001009053
0.0001477801
0.0001477755
0.0001009136
0.0001009085
0.0001478143
0.0001009159
0.0001478104