/*--------------------------------*- C++ -*----------------------------------*\
  =========                 |
  \\      /  F ield         | OpenFOAM: The Open Source CFD Toolbox
   \\    /   O peration     | Website:  https://openfoam.org
    \\  /    A nd           | Version:  7
     \\/     M anipulation  |
\*---------------------------------------------------------------------------*/
FoamFile
{
    version     2.0;
    format      ascii;
    class       volScalarField;
    location    "0.06";
    object      p;
}
// * * * * * * * * * * * * * * * * * * * * * * * * * * * * * * * * * * * * * //

dimensions      [0 2 -2 0 0 0 0];

internalField   nonuniform List<scalar> 
90967
(
1.987534
3.218772
4.601094
5.885245
7.189474
8.447522
1.979569
3.268725
4.616835
5.931987
7.234885
8.508077
2.018691
3.286281
4.674676
5.986496
7.31575
8.598691
2.033687
3.337008
4.72974
6.071597
7.415281
8.72263
2.070989
3.383426
4.809782
6.167968
7.543718
8.875709
2.10437
3.443465
4.894038
6.285082
7.690977
9.057912
2.146063
3.507965
4.991428
6.414324
7.859956
9.266875
2.184247
3.578017
5.093603
6.554217
8.043457
9.500096
2.220114
3.646679
5.196428
6.697368
8.235323
9.749846
2.252109
3.708573
5.291702
6.836316
8.428521
10.00845
2.278445
3.75141
5.365553
6.952978
8.6062
10.26359
2.2911
3.766598
5.405158
7.030004
8.745103
10.48836
2.271878
3.732797
5.377521
7.032344
8.812762
10.66531
2.21576
3.637553
5.258851
6.918242
8.742056
10.68817
2.089881
3.438649
4.984931
6.625287
8.487562
10.56401
1.889156
3.10737
4.51994
6.054406
7.870156
9.985747
1.554317
2.579033
3.753411
5.109429
6.800731
8.923452
1.091109
1.821906
2.675036
3.666911
4.982426
6.798691
0.5741925
1.059675
1.589259
2.238092
3.125529
4.408343
6.414228
0.04060294
0.07470954
0.1206525
0.1855307
0.2861418
0.4319749
0.6566653
35.43395
35.44305
35.45972
35.48802
35.52096
35.56337
35.61375
1.708686
3.073056
4.392736
5.713868
7.009527
8.276192
9.512007
0.3710274
1.972564
3.228581
4.595945
5.883451
7.186625
8.444753
0.4113864
1.908548
3.260514
4.602006
5.926301
7.230057
8.504329
0.4225653
1.947788
3.277153
4.663484
5.981223
7.313846
8.596855
0.4323534
1.949718
3.328002
4.711967
6.065031
7.411678
8.719945
0.4366928
1.988972
3.374744
4.792631
6.161713
7.542016
8.873492
0.4426664
2.015731
3.434882
4.87546
6.278701
7.689131
9.055891
0.4490368
2.058461
3.497411
4.973464
6.407583
7.858396
9.265044
0.4558419
2.102118
3.564067
5.075788
6.547247
8.04212
9.498175
0.46224
2.149221
3.628824
5.178688
6.689521
8.234552
9.748457
0.4683844
2.187047
3.689375
5.273864
6.826771
8.426584
10.00757
0.4720884
2.214465
3.733244
5.347633
6.94212
8.601788
10.26208
0.4723656
2.227128
3.750912
5.3864
7.016403
8.735712
10.48074
0.4668281
2.210364
3.720705
5.359108
7.017292
8.799563
10.6517
0.4536892
2.157873
3.623805
5.238492
6.895557
8.716099
10.65392
0.42837
2.036925
3.422662
4.963732
6.595554
8.448672
10.5048
0.3881711
1.847282
3.07618
4.481002
5.992611
7.783279
9.857447
0.3241476
1.514033
2.526749
3.669971
4.98553
6.617534
8.648033
0.2404294
1.075157
1.703682
2.483914
3.399
4.642402
6.349942
0.1464105
0.4880062
0.81593
1.175914
1.623976
2.241904
3.141038
4.541535
35.4371
35.43735
35.44897
35.47086
35.4971
35.53435
35.58214
1.699537
3.275399
4.5412
5.872717
7.151609
8.416998
0.3812666
2.036859
3.217506
4.602282
5.885822
7.188656
8.445677
0.769119
1.894917
3.30258
4.60079
5.937275
7.230487
8.508703
0.7168395
1.951948
3.304058
4.665047
5.986964
7.31388
8.598297
0.7541624
1.94425
3.362067
4.711188
6.075064
7.411333
8.722953
0.7537107
1.982631
3.405659
4.792049
6.167847
7.540043
8.874685
0.7664823
2.009218
3.468137
4.873604
6.286145
7.686392
9.057537
0.7765325
2.048184
3.531098
4.970014
6.41408
7.854536
9.265989
0.7890564
2.086231
3.59964
5.070835
6.553932
8.037475
9.498649
0.800695
2.124828
3.665632
5.172095
6.695827
8.229038
9.747943
0.8106267
2.159626
3.725546
5.265967
6.832162
8.419714
10.00457
0.8167562
2.185404
3.768286
5.33886
6.946662
8.594128
10.25806
0.816638
2.197022
3.783629
5.375292
7.017286
8.72258
10.4673
0.8059512
2.179427
3.751425
5.347608
7.017162
8.7867
10.64014
0.7813156
2.126542
3.648155
5.218063
6.87651
8.676814
10.59822
0.7352049
2.006706
3.447471
4.945878
6.584158
8.423539
10.48721
0.6600799
1.822783
3.076445
4.424622
5.901729
7.631638
9.623983
0.5514059
1.482684
2.539174
3.614462
4.92558
6.545905
8.610418
0.3920288
1.083405
1.616403
2.289861
3.048771
4.087237
5.458276
0.1767893
0.4387922
0.6668242
0.8133002
1.182179
1.707364
2.619616
35.45849
35.48036
35.50542
35.53829
35.59742
35.43267
35.43598
35.44669
35.47072
35.50007
35.53405
35.58586
1.696112
3.274896
4.567068
5.873868
7.160407
8.419129
0.3788892
2.041982
3.194474
4.605214
5.879673
7.185562
8.443714
0.6549701
1.89194
3.272936
4.59794
5.928991
7.227759
8.505299
0.6019291
1.950263
3.267115
4.660896
5.977727
7.310286
8.595179
0.6133658
1.921778
3.317094
4.699585
6.061811
7.405327
8.718591
0.6177387
1.968764
3.359777
4.783276
6.154318
7.535436
8.870241
0.628336
1.992258
3.419713
4.86223
6.271326
7.680965
9.052947
0.6403502
2.033467
3.481882
4.958891
6.398278
7.849077
9.26085
0.6529218
2.071806
3.54953
5.059133
6.537403
8.031494
9.492981
0.6654881
2.111609
3.615288
5.16008
6.678409
8.222284
9.74146
0.6767756
2.145639
3.67477
5.252833
6.813335
8.411038
9.996337
0.6852024
2.170095
3.71785
5.324668
6.926715
8.583476
10.24708
0.6893739
2.179283
3.733908
5.358688
6.994616
8.70662
10.45002
0.6848418
2.159164
3.703551
5.328728
6.991517
8.765258
10.6147
0.6692994
2.103467
3.600294
5.193041
6.842664
8.639266
10.55129
0.6357219
1.980568
3.401682
4.911398
6.533148
8.359672
10.40065
0.5794573
1.799055
3.028516
4.371048
5.814791
7.514867
9.471869
0.4922727
1.452733
2.481836
3.510172
4.758258
6.307615
8.283218
0.3701815
1.074428
1.550214
2.155885
2.825856
3.769813
5.020899
0.1918935
0.4199048
0.5931792
0.6390993
0.9034747
1.296319
2.022233
35.45328
35.47844
35.49984
35.536
35.5823
35.43065
35.43567
35.44419
35.46821
35.49571
35.53051
35.57774
1.696364
3.281669
4.558969
5.876931
7.156393
8.419683
0.3809683
2.051721
3.193938
4.605797
5.880934
7.185349
8.444393
0.684801
1.881487
3.284959
4.593681
5.933572
7.227035
8.507145
0.6176935
1.931859
3.272427
4.656439
5.979332
7.309051
8.595587
0.6458818
1.91141
3.32677
4.695604
6.065458
7.404013
8.719742
0.642753
1.950941
3.366786
4.776392
6.155109
7.532938
8.870412
0.656149
1.975685
3.427678
4.855345
6.272827
7.678091
9.053236
0.6658945
2.01539
3.489051
4.95151
6.399135
7.845614
9.260679
0.6787549
2.052946
3.556907
5.051396
6.538233
8.027678
9.492445
0.6904221
2.091827
3.622224
5.151815
6.678855
8.218006
9.740284
0.7010111
2.125909
3.681258
5.244126
6.813207
8.405948
9.993849
0.7085283
2.150541
3.72386
5.315445
6.925804
8.577435
10.24348
0.7117295
2.160728
3.739257
5.348786
6.991389
8.697659
10.44155
0.7059662
2.141966
3.708474
5.318569
6.986994
8.754826
10.60462
0.6887582
2.087852
3.602872
5.179446
6.829122
8.616381
10.52163
0.6536781
1.967944
3.405377
4.898425
6.518602
8.334946
10.37425
0.5933906
1.788836
3.022755
4.342829
5.767372
7.440304
9.363519
0.5037844
1.445381
2.484164
3.486465
4.726271
6.26171
8.234032
0.3766979
1.073295
1.525215
2.096595
2.715457
3.597286
4.751308
0.1993791
0.4209083
0.6021626
0.6236309
0.884456
1.26887
1.993811
35.45399
35.48076
35.50211
35.53857
35.5889
35.42999
35.43557
35.44363
35.46883
35.49681
35.53141
35.57955
1.696646
3.281611
4.558672
5.876851
7.155986
8.419953
0.3804787
2.051433
3.194012
4.605518
5.881043
7.185331
8.444646
0.6847509
1.881575
3.284984
4.593595
5.933542
7.226848
8.507213
0.617646
1.931536
3.27243
4.656283
5.979415
7.309006
8.595716
0.6459396
1.911577
3.326811
4.69548
6.065443
7.403881
8.719766
0.6427494
1.95088
3.366781
4.776269
6.155118
7.532846
8.870454
0.6561697
1.97558
3.427657
4.855191
6.272794
7.677958
9.053252
0.6658801
2.015318
3.489007
4.951392
6.399109
7.845502
9.260683
0.6787774
2.052767
3.556896
5.051231
6.538225
8.027578
9.492478
0.6903278
2.091804
3.622137
5.151742
6.678856
8.21794
9.740339
0.7009893
2.125809
3.681267
5.244
6.813276
8.405909
9.993986
0.7079824
2.150681
3.723744
5.315426
6.925883
8.577471
10.24366
0.7110995
2.160705
3.739195
5.348751
6.991515
8.697775
10.44181
0.7052984
2.14211
3.708403
5.318664
6.987197
8.755034
10.60497
0.6882965
2.087808
3.602824
5.179391
6.829255
8.616584
10.52204
0.653331
1.968101
3.405608
4.898864
6.519307
8.33559
10.37497
0.5933849
1.788544
3.022699
4.342463
5.767248
7.440218
9.363716
0.5036927
1.445659
2.484895
3.487549
4.727971
6.263077
8.235412
0.376525
1.07255
1.52464
2.095414
2.714079
3.596143
4.750339
0.2002847
0.4206611
0.6031082
0.6251171
0.8872164
1.271464
1.995852
35.45338
35.48047
35.50161
35.53762
35.58835
35.42979
35.43549
35.44325
35.46833
35.49604
35.53039
35.57887
1.697804
3.274268
4.566034
5.873016
7.160446
8.41965
0.3791984
2.041625
3.194192
4.604385
5.879637
7.185159
8.444417
0.655055
1.891402
3.272771
4.597262
5.928717
7.227622
8.505693
0.6016028
1.950037
3.267055
4.660576
5.977866
7.310191
8.595554
0.6132906
1.921495
3.317086
4.699385
6.061799
7.405357
8.718815
0.6177028
1.968708
3.359772
4.783157
6.154421
7.535558
8.870472
0.6283375
1.992322
3.419735
4.862303
6.271414
7.681181
9.053162
0.6403685
2.033644
3.48188
4.959032
6.398396
7.849366
9.261112
0.6529839
2.072293
3.549615
5.059518
6.537599
8.031931
9.493311
0.6655652
2.112204
3.615371
5.160414
6.678607
8.222777
9.741839
0.6769834
2.146649
3.675116
5.253512
6.813686
8.411769
9.996833
0.6855551
2.170319
3.717984
5.325092
6.926986
8.584194
10.2477
0.6898622
2.179384
3.734273
5.359315
6.995055
8.707489
10.45082
0.6852624
2.159166
3.703785
5.329281
6.991933
8.766183
10.61564
0.6696935
2.104022
3.600648
5.193961
6.843279
8.640434
10.55249
0.6362424
1.981313
3.402065
4.912106
6.533473
8.36045
10.40162
0.5798641
1.80079
3.029018
4.372393
5.815155
7.515818
9.472827
0.4924884
1.453093
2.48147
3.509811
4.756811
6.306141
8.282433
0.3704638
1.07559
1.550579
2.156917
2.825736
3.769595
5.020092
0.1958198
0.4218033
0.5918655
0.636765
0.898416
1.290382
2.01725
35.45333
35.47839
35.50027
35.53749
35.58237
35.43022
35.43579
35.44428
35.46863
35.49605
35.53105
35.57775
1.696322
3.274615
4.539149
5.872045
7.150693
8.420055
0.3829029
2.034921
3.217679
4.600832
5.886106
7.188792
8.447162
0.7696636
1.895472
3.302642
4.599906
5.93666
7.22971
8.509501
0.7171466
1.950671
3.304202
4.664246
5.987362
7.313808
8.599117
0.7544866
1.944179
3.362126
4.710787
6.075001
7.410987
8.723247
0.7537066
1.982159
3.405682
4.791805
6.168079
7.539999
8.875036
0.7665493
2.009074
3.46818
4.873451
6.286243
7.686339
9.057784
0.7765239
2.048031
3.531129
4.969962
6.414231
7.854616
9.266275
0.78932
2.086024
3.599846
5.070898
6.554179
8.037679
9.499026
0.8009984
2.124796
3.66584
5.172236
6.696064
8.229316
9.748374
0.8119297
2.159752
3.726256
5.266255
6.832666
8.420224
10.00527
0.8156357
2.185073
3.768528
5.339117
6.947072
8.594777
10.25887
0.8152818
2.196438
3.784015
5.375655
7.017924
8.723485
10.46852
0.8042523
2.179366
3.751627
5.348266
7.017905
8.787831
10.64163
0.7803275
2.126818
3.648518
5.218799
6.877361
8.678342
10.60021
0.7347967
2.007458
3.448375
4.947279
6.585497
8.425036
10.48929
0.6613462
1.824001
3.077254
4.425447
5.902321
7.633619
9.626415
0.5508459
1.483326
2.540259
3.616069
4.926401
6.544319
8.610424
0.391302
1.083684
1.615947
2.288542
3.046889
4.089463
5.459509
0.1895442
0.4348515
0.669512
0.8189716
1.191657
1.714553
2.624629
35.45804
35.48079
35.50488
35.5365
35.59571
35.43196
35.43589
35.44614
35.46984
35.49788
35.53137
35.58419
1.681561
3.023039
4.331277
5.635211
6.935401
8.199974
9.436481
0.32289
1.971218
3.227144
4.592464
5.883039
7.184442
8.448933
0.3229832
1.906771
3.25996
4.600082
5.925016
7.229362
8.505487
0.3117684
1.946992
3.276889
4.662351
5.981631
7.313286
8.598096
0.3135996
1.949364
3.327837
4.711151
6.06485
7.411224
8.720396
0.3152641
1.988621
3.374647
4.79228
6.162011
7.542001
8.873968
0.3212542
2.015712
3.434874
4.875381
6.278829
7.689287
9.05625
0.3262695
2.058782
3.497461
4.973557
6.407789
7.858735
9.265438
0.3310789
2.103076
3.564343
5.076264
6.547539
8.042728
9.498676
0.3357076
2.151884
3.629505
5.179254
6.689861
8.235238
9.749065
0.3408178
2.194069
3.690473
5.275292
6.827257
8.427713
10.00837
0.3454343
2.217087
3.733757
5.348476
6.94255
8.602863
10.26308
0.3463813
2.229568
3.751345
5.38758
7.017011
8.73723
10.48216
0.3442491
2.211834
3.721009
5.360185
7.017981
8.801177
10.65343
0.3365835
2.160233
3.624293
5.240047
6.896352
8.718044
10.65596
0.3199817
2.042271
3.424083
4.965636
6.596459
8.450336
10.50673
0.2940568
1.857005
3.077419
4.48288
5.991908
7.782797
9.857307
0.2519125
1.517435
2.526629
3.670178
4.982885
6.613141
8.646866
0.2069435
1.076167
1.701632
2.479701
3.381966
4.609041
6.318883
0.1502266
0.4800438
0.7656543
1.056658
1.420455
1.940095
2.721818
4.07221
35.43602
35.43758
35.44866
35.47267
35.49727
35.53599
35.58152
1.466623
2.793412
4.104695
5.407545
6.571665
7.984297
9.22489
0.1557517
1.982204
3.21826
4.597331
5.885026
7.190016
8.451546
0.3769507
1.980751
3.269792
4.614917
5.928943
7.234037
8.509742
0.1753866
2.016042
3.286264
4.673435
5.9872
7.316065
8.60004
0.1759971
2.033453
3.337095
4.728904
6.071194
7.414693
8.723107
0.1780533
2.070014
3.383594
4.809199
6.168386
7.543758
8.876244
0.1796546
2.104058
3.443579
4.893795
6.285178
7.690997
9.058281
0.1816652
2.14552
3.508126
4.991235
6.41454
7.86017
9.267291
0.1837883
2.18354
3.578266
5.09371
6.554467
8.043881
9.500615
0.1867944
2.218185
3.647296
5.196134
6.69764
8.235765
9.750476
0.1918599
2.24997
3.710077
5.291839
6.836793
8.42932
10.00937
0.1905156
2.274195
3.752757
5.365204
6.953394
8.607025
10.26468
0.1794694
2.286167
3.768796
5.405077
7.030801
8.746456
10.48999
0.1847951
2.267847
3.733841
5.377657
7.033061
8.814128
10.66708
0.1797203
2.21468
3.637993
5.259911
6.919588
8.744853
10.69128
0.1696411
2.0873
3.439942
4.985776
6.625497
8.487259
10.56533
0.1514479
1.893486
3.107681
4.522138
6.057215
7.877921
9.991654
0.1352656
1.553438
2.578464
3.752453
5.097855
6.771997
8.9029
0.2294024
1.095205
1.824088
2.667897
3.657535
4.99892
6.80919
0.0718434
0.5138422
0.8733308
1.254583
1.695495
2.276168
3.152195
4.899558
35.43599
35.43645
35.44413
35.46089
35.49162
35.51787
35.57747
35.63232
0.9130821
1.093227
0.1431892
0.8655613
1.673918
2.212815
1.468145
2.37576
1.643914
2.181087
3.018013
3.478346
2.795992
3.683229
3.005921
3.485171
4.347771
4.788569
4.109722
4.998568
4.339948
4.800718
5.658095
6.082782
5.419698
6.295457
5.653488
6.090524
6.951507
7.363072
6.711859
7.573625
6.946872
7.370944
8.219421
8.614874
7.980378
8.821702
8.211741
8.622436
9.457998
9.21985
9.449491
0.8770269
0.9843988
0.1538038
0.7737651
0.1644711
0.8283365
0.9786907
1.005257
0.1673545
0.8057077
0.173446
0.8254071
1.014583
1.018283
0.1749185
0.8231783
0.1756152
0.8245585
1.026433
1.031307
0.1766199
0.8321289
0.1767597
0.8373862
1.043914
1.047259
0.1781671
0.8464291
0.1773906
0.8473568
1.054948
1.067745
0.1796682
0.8588009
0.1781577
0.8596766
1.067724
1.08649
0.1816591
0.8747265
0.1804561
0.874433
1.088056
1.107323
0.1836886
0.89341
0.183141
0.8929768
1.110568
1.127548
0.18566
0.9168695
0.1856646
0.9118046
1.130871
1.144263
0.1873959
0.9419894
0.1867679
0.9270208
1.142852
1.153989
0.1877819
0.9570012
0.1863437
0.9405892
1.146217
1.153017
0.1873903
0.9673425
0.1838832
0.9532993
1.133354
1.142004
0.1851043
0.9665648
0.180014
0.9542589
1.099228
1.109295
0.1798294
0.948587
0.1728797
0.9382737
1.03699
1.043622
0.1700599
0.9069187
0.160825
0.8942964
0.9360732
0.9358614
0.1545393
0.8307656
0.1438756
0.8183147
0.7837339
0.7633286
0.1313129
0.7121391
0.1183101
0.6871438
0.5765043
0.4921288
0.09864609
0.5351269
0.08326933
0.4793214
0.3198589
0.1057412
0.0612816
0.3101656
0.07325098
0.03174035
35.4414
35.43628
35.44017
0.06346601
35.44021
35.45069
35.43614
35.44664
0.1037811
35.45094
35.46657
35.44606
35.46363
0.1596155
35.46839
35.49238
35.46427
35.49145
0.2401498
35.49444
35.52448
35.48926
35.52176
0.3606658
35.5282
35.5647
35.52299
35.55873
0.5514764
35.57273
35.61771
35.56498
35.6081
35.63004
35.61737
35.43719
35.43583
35.43768
1.085648
0.1458092
0.9387328
1.195094
0.1445842
0.9290024
35.43558
35.44284
35.43489
35.44026
1.188629
0.1519206
0.9310079
1.231606
0.1527889
0.9318347
35.4335
35.44022
35.43215
35.43609
1.241896
0.1519931
0.9270985
1.252404
0.1520314
0.9307253
35.43129
35.43653
35.4305
35.43468
1.249758
0.1525622
0.9312188
1.249951
0.1521129
0.9309224
35.43035
35.43671
35.42987
35.43335
1.250136
0.1522372
0.9310166
1.249234
0.1522847
0.9309558
35.42988
35.43329
35.43047
35.43691
1.252009
0.1515249
0.9305132
1.24135
0.1514652
0.9266376
35.43063
35.43461
35.43127
35.4366
1.231266
0.1523525
0.9316996
1.187549
0.1520119
0.9305467
35.4321
35.436
35.43337
35.44013
1.194293
0.144873
0.9285989
1.084859
0.1453102
0.9387484
35.43461
35.43996
35.43539
35.44225
1.092512
0.1429761
0.8662599
0.9137538
2.373284
1.643213
2.179242
1.672914
2.210848
3.679143
3.003406
3.482306
3.01579
3.47605
4.98739
4.33599
4.7936
4.344654
4.783828
6.267603
5.647655
6.062959
5.655365
6.066492
7.45714
6.97219
7.343954
6.938261
7.394434
8.826527
8.223083
8.622086
8.230071
8.622301
9.454136
9.462553
0.7742658
0.1563256
0.8292626
0.8737687
0.9975294
0.806647
0.1867039
0.8128486
0.9767583
1.016334
0.8153967
0.1746645
0.8242088
1.009746
1.021102
0.8309583
0.1765841
0.837464
1.025836
1.031604
0.8459432
0.1773719
0.8475389
1.04367
1.047544
0.858789
0.1781649
0.8597132
1.055044
1.067838
0.8746497
0.1805012
0.8745035
1.067705
1.086521
0.893348
0.1836581
0.894336
1.087708
1.107382
0.9194559
0.2028494
0.9183248
1.11007
1.128794
0.9573272
0.2005395
0.9372893
1.140247
1.146668
0.9663978
0.1856717
0.9547927
1.155679
1.167802
0.9729879
0.1744734
0.9645485
1.131594
1.153653
0.9525046
0.1748916
0.9447477
1.098068
1.110866
0.8472104
0.139352
0.8416519
0.9455338
0.9397422
0.7253553
0.111783
0.6954162
0.7855935
0.773533
0.5256838
0.2085937
0.4733883
0.586434
0.5023441
0.3156446
0.072683
0.3246925
0.1047002
35.43609
35.43876
0.03177596
35.4395
35.43493
35.44876
0.04139933
0.1019312
35.43744
35.45403
35.44431
35.46343
0.1035688
0.1706128
35.45127
35.46697
35.46449
35.48542
0.1683517
0.2043634
35.46698
35.49359
35.48597
35.52131
0.2541074
35.48946
35.52513
35.52305
35.56125
35.53082
35.56329
35.56619
35.60667
0.5975261
35.5696
35.60673
35.61686
0.6884429
35.61501
35.43809
35.43918
0.3388396
0.4242129
0.2555706
0.5008432
0.2993016
0.4715235
0.2197524
0.5694697
0.2952876
0.5040872
0.2213043
0.5906151
0.3059364
0.5115703
0.2250703
0.5966773
0.3109574
0.5156576
0.2298836
0.6039949
0.3170263
0.5220907
0.2343405
0.6087265
0.3242172
0.524822
0.236886
0.6133643
0.3307874
0.5262963
0.243479
0.6218206
0.3387563
0.5329526
0.2519562
0.6317185
0.3497413
0.5387275
0.2616116
0.6366425
0.3572194
0.5450222
0.2697308
0.6361883
0.362918
0.5472089
0.2769874
0.6303575
0.3665842
0.5454964
0.281419
0.6158105
0.3652107
0.5425967
0.2813779
0.5886744
0.357436
0.5303604
0.2736814
0.5430469
0.3401919
0.5038945
0.2594672
0.4821435
0.3080329
0.4602332
0.2333286
0.3931384
0.2628094
0.3909123
0.1932653
0.2775427
0.2017372
0.283118
0.1243932
0.1556329
0.1260842
0.1411407
0.7229092
0.1495028
0.2099447
0.5165381
0.6233003
0.1046841
0.1239466
1.173296
0.2597567
0.3247851
0.8770129
0.981099
0.1624604
0.1954834
1.717344
0.3842233
0.4654842
1.255664
1.399041
0.2319053
0.280118
2.428705
0.5399336
0.6521195
1.718109
1.94347
0.3207286
0.3958613
3.419073
0.7526704
0.9306665
2.360883
2.71292
0.4464397
0.5669477
4.936085
1.075053
1.379493
3.325654
3.940026
0.6473509
0.848892
1.62025
4.927255
0.9911005
35.44085
0.01483124
0.005040275
35.44067
35.46114
0.04936938
35.43332
0.02012391
0.02121758
35.42674
35.45108
35.48016
0.09043063
35.43841
0.03420652
0.03663487
35.42814
35.46615
35.50286
0.1452075
35.45255
0.0491543
0.05231453
35.4397
35.48785
35.5325
0.2214092
35.47808
0.06761562
0.07188975
35.46472
35.5178
35.56795
0.3362625
35.51171
0.09459688
0.09891625
35.49875
35.55456
35.613
0.5165257
35.55638
0.1323916
0.1360513
35.54457
35.60061
35.61671
0.2106439
35.60562
35.43131
35.43704
35.43693
35.43131
0.3799112
0.3898686
0.2857878
0.07585243
0.1492296
0.2769227
0.0760643
35.43838
0.005271212
35.4382
0.005026657
0.3691139
0.3677116
0.2368265
0.07556285
0.1893494
0.2192653
0.0718752
35.43566
0.004326371
35.43536
0.004175258
0.3709623
0.3790176
0.2018211
0.06974403
0.1956944
0.1957682
0.06770742
35.43327
0.003785338
35.43282
0.003748524
0.3714135
0.3792839
0.1910886
0.06755211
0.2002986
0.1885291
0.06737461
35.43254
0.003769292
35.43246
0.003770225
0.3716417
0.37916
0.1884894
0.06737118
0.1994057
0.1910051
0.06754759
35.43107
0.003776303
35.43169
0.003771267
0.3737772
0.3789374
0.1957309
0.06770021
0.1920869
0.2017496
0.06972298
35.43176
0.003740465
35.43234
0.003753897
0.3704792
0.3757832
0.2190721
0.07186055
0.1768404
0.2366261
0.07551336
35.43362
0.003868906
35.43398
0.00402509
0.3692514
0.3748295
0.2758262
0.07590544
0.1464245
0.2844932
0.07583136
35.43634
0.004527594
35.43679
0.004634271
0.3683042
0.3700371
0.9816518
0.1765859
0.9672168
1.161214
1.168952
0.9187938
0.1679474
0.9150116
1.050283
1.049119
0.6189568
0.1034902
0.1122081
0.5699396
0.7131396
0.1515196
0.1644359
0.9770688
0.1503382
0.1796838
1.062233
1.165931
0.2306523
0.2679431
1.390606
0.2201023
0.2808524
1.593867
1.713585
0.3502642
0.4228017
1.833564
0.3589463
0.8200466
2.181837
2.305439
0.4069173
0.4695902
2.574738
0.9911554
1.119957
2.927875
3.216424
0.5064202
0.6644795
3.882003
1.553582
0.8600235
4.176829
4.869182
0.7406994
1.299565
0.9840105
6.412582
1.639843
35.43919
0.005628919
35.43818
0.005518365
0.289512
0.4837336
0.3050995
0.4345473
0.369113
0.3708379
0.2255103
0.5531279
0.3017351
0.4847271
0.2193137
0.5842221
0.3023445
0.5055608
0.2217333
0.5946879
0.3082961
0.511745
0.2263856
0.600301
0.3135652
0.5166194
0.2310987
0.6074107
0.320062
0.5220772
0.2362458
0.6155281
0.3279935
0.5266671
0.241122
0.6245326
0.3363806
0.5317415
0.2476909
0.6336545
0.3457637
0.5385506
0.2545569
0.641327
0.355153
0.5441905
0.2608514
0.6454544
0.3624378
0.5470143
0.2671868
0.6445904
0.3687452
0.546622
0.2735343
0.6367101
0.3712342
0.542319
0.27495
0.6154974
0.3666113
0.5341699
0.2760873
0.5813905
0.3533953
0.5159727
0.2683472
0.5304693
0.3288011
0.4788588
0.2501429
0.4565404
0.2908649
0.4227057
0.2166375
0.3530996
0.2358817
0.3405785
0.1684897
0.2215296
0.1616495
0.2294725
0.07551001
0.04675253
0.04203757
0.08676313
35.43836
0.02548349
35.446
0.01470867
0.009186602
35.45469
35.43487
35.43852
35.43695
35.43721
35.43864
35.43918
0.005888549
0.005718426
35.43845
35.42899
0.05602044
35.45848
0.02801014
0.02618832
35.47089
35.43584
35.43966
0.09753264
35.47558
0.0410124
0.04006558
35.48895
35.44666
35.46294
0.1565126
35.50228
0.055906
0.05614808
35.51582
35.46797
35.49348
0.2408055
35.53462
0.07532334
0.07766343
35.5472
35.49779
35.53416
0.366735
35.57583
0.1015725
0.1124183
35.58575
35.5373
35.58876
0.5579194
35.63122
0.1457433
0.1728069
35.63837
35.58865
0.3691331
0.3748041
35.43663
0.004535522
0.00465103
35.4371
0.3709419
0.3760769
35.43369
0.003869142
0.004027768
35.43399
0.3748754
0.3795782
35.43178
0.003738307
0.003751982
35.43233
0.3713282
0.3789493
35.43102
0.003776772
0.003771612
35.43178
0.3716359
0.3785214
35.43248
0.003769451
0.003770083
35.43237
0.370247
0.3781142
35.43332
0.00378679
0.003751271
35.43281
0.3685397
0.3683933
35.43559
0.004317771
0.004169144
35.43522
0.3794081
0.3898307
35.43791
0.005183762
0.004944189
35.43797
0.3380091
0.4253419
0.7481133
1.067733
1.044031
0.7767291
0.2880283
0.482812
0.3028867
0.434389
1.793663
1.473189
1.439052
1.79496
2.14409
2.359114
2.35816
2.14918
3.117489
2.794795
2.772211
3.105615
3.462706
3.660071
3.658299
3.462971
4.435397
4.109908
4.085137
4.422689
4.777849
4.973674
4.968266
4.777327
5.739184
5.414156
5.387443
5.730443
6.072792
6.260511
6.248571
6.074457
7.051206
6.709751
6.683371
7.013964
7.334909
7.574866
7.22928
7.565219
7.360335
8.319456
8.002823
7.981173
8.296105
8.633872
8.809016
8.805363
8.62975
9.233096
9.206521
0.2545483
0.4994513
0.3015676
0.4579586
0.2425304
0.0966446
0.5112392
0.3210376
0.4648399
0.2690954
0.1031888
0.5082088
0.3523464
0.09140522
0.4389557
0.2358616
0.5582387
0.0958822
0.2963954
0.4549665
0.2186521
0.5710857
0.3010335
0.5053374
0.222052
0.5927124
0.3065304
0.5125553
0.2246533
0.5958049
0.3101564
0.5153464
0.2265503
0.5999687
0.3131292
0.5168604
0.2298306
0.6036869
0.3167691
0.5219738
0.2311588
0.6073032
0.3199874
0.5220863
0.2343468
0.6086728
0.3241737
0.5248207
0.2362764
0.6154663
0.3279822
0.5266508
0.2368009
0.6132833
0.3307514
0.5262085
0.2411484
0.6244404
0.3363078
0.5317416
0.2430191
0.62172
0.3386049
0.5327049
0.2474554
0.6328846
0.3449903
0.5384328
0.2482209
0.6299332
0.3474899
0.5357009
0.2518139
0.6250806
0.3418076
0.5407108
0.3112372
0.6182593
0.3339359
0.1395289
0.5467027
0.2720485
0.617693
0.3530546
0.1049183
0.5157964
0.2851975
0.6186905
0.1055273
0.3754319
0.5154805
0.2401327
0.3805318
0.2661312
0.380934
0.2273757
0.09052491
0.3337199
0.0886423
0.2642999
0.3231691
0.07327891
0.04478664
0.04089439
0.08390212
35.44085
0.01471451
0.004774979
35.44075
35.43888
0.01443533
0.02559221
35.44486
0.009092039
35.45497
35.43547
35.43873
35.43753
35.4368
35.43707
35.43879
0.01953008
0.05980071
35.43679
0.01064557
35.43282
35.44309
35.44012
0.08849966
35.45933
35.47432
35.43458
35.48064
0.01619601
0.1037433
35.43877
0.03584588
35.42913
35.46719
35.44021
0.1303813
35.47618
0.03958911
35.48901
35.44754
35.50157
0.02379018
0.1425403
35.45326
0.04691769
35.44031
35.48817
35.45989
0.02666312
0.1545276
35.5031
0.05233606
35.50631
35.46725
35.48547
35.49057
35.50322
35.5307
35.5424
35.50773
35.56869
35.51213
35.50057
35.55457
35.53601
35.57632
35.58621
35.53786
35.61181
35.55664
35.54378
35.59964
35.59122
0.1498669
0.1914571
35.63141
35.62971
35.59023
0.2183624
35.61914
35.62796
35.43134
35.43766
35.43771
35.43121
0.1086078
0.19803
1.794941
1.474587
1.440469
1.796737
3.120465
2.797167
2.774697
3.108454
4.440073
4.11389
4.08931
4.426588
5.746203
5.422211
5.398149
5.731831
7.034817
6.7154
6.690381
7.019693
8.297908
7.985374
7.959686
8.282191
9.226467
9.199472
0.01460789
0.2347232
0.06654203
0.1859828
0.01516221
0.2694365
0.08317566
0.2039046
0.01821155
0.2767905
0.09040876
0.2066745
0.01988003
0.2781916
0.09213477
0.2078088
0.02082658
0.2803871
0.09310643
0.2098705
0.02248445
0.2814371
0.09404861
0.2109834
0.02464444
0.2825803
0.09515286
0.2130076
0.0270352
0.2842787
0.09640033
0.2157018
0.02992357
0.2854597
0.09733288
0.2187222
0.03280997
0.2859207
0.09903425
0.2203097
0.0352886
0.2839652
0.09967841
0.2198224
0.04048439
0.2769197
0.09653836
0.2193265
0.04393692
0.2668449
0.09399865
0.2142804
0.04680125
0.2507788
0.08955752
0.2050916
0.04878948
0.2271139
0.08264744
0.1900798
0.04839585
0.1966736
0.0752077
0.1671353
0.0469037
0.1553409
0.063648
0.1370792
0.04174841
0.1054508
0.04899299
0.1044849
0.02908433
0.05604469
0.03018962
0.0583033
0.004434785
0.00220511
0.03948743
0.03319837
0.0336434
0.06909553
0.06061336
0.05257851
0.1059101
0.09098544
0.06600825
0.1554274
0.130026
0.07826058
0.2338483
0.1840549
0.09193442
0.351116
0.2649232
0.1341536
0.5537768
0.4150086
0.2520861
35.43418
35.44024
35.43602
35.43598
35.43986
35.43539
35.44196
35.4535
35.44318
35.45376
35.48097
35.4569
35.49246
35.51078
35.49693
35.51815
35.54888
35.52717
35.55764
35.59799
35.57308
35.60697
35.62469
0.1124435
0.1094719
0.002133299
0.002162071
35.44054
35.43618
35.43977
0.09758718
0.09724546
0.001954747
0.001952287
35.43533
35.43193
35.43481
0.09676265
0.09742337
0.001892167
0.001877506
35.43323
35.43016
35.4328
0.09570279
0.09745337
0.001915702
0.001902035
35.43246
35.42977
35.43255
0.09598374
0.09662853
0.001918022
0.00190404
35.43257
35.42997
35.43254
0.09684037
0.09685888
0.001897287
0.001885521
35.4329
35.43072
35.43333
0.0965737
0.09620505
0.001879506
0.00188252
35.43485
35.43277
35.43548
0.09583277
0.09625431
0.001897433
0.001902295
35.43971
35.43709
35.4409
0.09344985
0.09783941
0.002200303
0.002155032
35.44455
35.43657
35.44153
35.45552
35.44363
35.45491
35.48398
35.46048
35.47688
35.50897
35.48699
35.50684
35.5653
35.51505
35.55464
35.60705
35.56818
35.60119
0.7485701
1.068259
1.0448
0.7766081
0.01748323
0.2299324
0.07016661
0.177302
0.09386592
0.09751982
2.145947
2.361808
2.360935
2.151064
3.466091
3.663386
3.661522
3.466288
4.782056
4.980283
4.977967
4.781943
6.082338
6.275211
6.272141
6.081383
7.365223
7.552806
7.5492
7.363732
8.620856
8.80097
8.796339
8.618924
0.0121885
0.2671235
0.08143187
0.2024952
0.01757771
0.2755965
0.08986634
0.2058261
0.01952286
0.2778351
0.09167945
0.2075759
0.02043322
0.2793217
0.09241434
0.2089891
0.02131025
0.2813977
0.09335601
0.2108784
0.02203376
0.2839427
0.09458574
0.2126919
0.02302882
0.286377
0.09580951
0.2147327
0.02436476
0.2880265
0.09659336
0.216707
0.02564391
0.2892803
0.0978285
0.2177047
0.0268873
0.2885301
0.09833374
0.217744
0.02737736
0.2848619
0.09724618
0.215261
0.02746166
0.2778246
0.09535997
0.2101692
0.02558068
0.2646858
0.09121141
0.1993273
0.02533333
0.2420678
0.08433085
0.1858151
0.02474489
0.2100149
0.07716354
0.1674775
0.0224102
0.1720772
0.06740935
0.1418098
0.02224731
0.1277685
0.05460935
0.1104708
0.02445577
0.0745182
0.03493809
0.07028813
0.0130747
0.00610054
0.002378526
0.01976224
0.1685039
0.2219589
0.0867921
0.08209338
0.1919119
0.07771961
0.1852115
0.07240333
0.02707912
0.04198475
0.02526211
0.04313848
0.07082554
0.03456518
0.02651675
0.0277457
35.43731
35.43442
35.43589
35.43972
35.43679
35.44108
35.4376
35.44136
35.44066
35.43802
35.4366
0.00221569
0.002158909
35.43862
35.43664
35.43701
35.43686
35.43829
0.07081062
0.05522011
0.05713959
35.44227
35.43684
35.44569
35.44147
35.43705
35.44521
35.4437
35.44052
35.45022
35.44586
35.44909
35.44731
35.44576
35.43992
0.1149651
0.08536564
0.08343687
35.45368
35.44471
35.45893
35.45138
35.44442
35.45952
35.45632
35.45258
35.46533
35.46115
35.46734
35.46426
35.4611
35.45129
0.1712856
0.1201377
0.1077471
35.47314
35.4592
35.47924
35.47043
35.46036
35.48065
35.47622
35.47456
35.49218
35.48354
35.49291
35.4898
35.48387
35.47255
0.2520052
0.1639924
0.139623
35.50276
35.48408
35.5092
35.49714
35.48494
35.51055
35.50704
35.50357
35.52504
35.51401
35.52526
35.52243
35.51435
35.50061
0.3717231
0.229256
0.1949205
35.5402
35.51623
35.54613