/*--------------------------------*- C++ -*----------------------------------*\
  =========                 |
  \\      /  F ield         | OpenFOAM: The Open Source CFD Toolbox
   \\    /   O peration     | Website:  https://openfoam.org
    \\  /    A nd           | Version:  7
     \\/     M anipulation  |
\*---------------------------------------------------------------------------*/
FoamFile
{
    version     2.0;
    format      ascii;
    class       surfaceScalarField;
    location    "0.06";
    object      phi;
}
// * * * * * * * * * * * * * * * * * * * * * * * * * * * * * * * * * * * * * //

dimensions      [0 3 -1 0 0 0 0];

internalField   nonuniform List<scalar> 
270789
(
-0.06171191
0.0001140297
-0.002877736
0.001357782
-0.002375415
0.0006389404
-0.0005031134
0.01476517
0.01520613
0.01777217
0.01761396
-0.06105356
1.285954e-05
-0.0004828904
0.002203265
-0.002320541
0.000481041
-0.0005520915
-0.06087705
-0.0003305163
-0.0001852154
0.002402122
-0.002232734
0.0006302694
-0.0004604386
-0.06067955
-0.0003975984
-6.167587e-05
0.002373313
-0.002234793
0.0005990073
-0.0004757577
-0.0604214
-0.000640404
-5.076986e-05
0.002413285
-0.002189477
0.0006432789
-0.00043406
-0.0009338192
-6.212403e-05
0.002426769
-0.002142631
0.0006713531
-0.0003966712
-0.05998428
-0.06150176
-0.0001837421
-0.004011941
0.01528104
0.01525382
0.01767426
0.01760235
-0.06015555
-9.06621e-05
-0.00124269
-0.05998807
-0.0003079885
-0.0001900125
-0.05981706
-0.0004443284
-0.0001242797
-0.05962744
-0.0008140136
-1.602003e-05
-0.001240031
-3.336886e-05
-0.05928786
-0.0612677
-2.123746e-05
-0.004656829
0.01528446
0.01526879
0.01761818
0.0175906
-0.05997802
-1.043354e-06
-0.001379295
-0.059761
-0.0001912977
-0.0003337169
-0.05967749
-0.0004024254
-0.0001254208
-0.05961239
-0.0008431683
-3.59551e-05
-0.001414713
-1.736043e-05
-0.05942035
-0.06119452
0.0001502444
-0.004689488
0.01526459
0.01526693
0.01759475
0.01758625
-0.05987207
0.0001916929
-0.001515188
-0.05974778
3.958815e-05
-0.0003551774
-0.05977649
-0.0002123494
-0.0001613758
-0.05987753
-0.0007061563
-3.597648e-05
-0.001398005
-1.672441e-05
-0.05987752
-0.06113489
0.0003749539
-0.00476591
0.01525116
0.01526361
0.0175815
0.01757982
-0.05991889
0.0005030323
-0.00152734
-0.05991386
0.000416236
-0.0003816854
-0.06013526
0.0001730259
-0.0001639834
-0.06045466
-0.0003452131
-4.154909e-05
-0.001131763
-1.193016e-05
-0.06070898
-0.06105888
0.0007039916
-0.004784959
0.01519902
0.01523197
0.01754136
0.01754246
-0.05997039
0.0009559924
-0.001541455
-0.06015649
0.0009931326
-0.0003907996
-0.06061138
0.0008024982
-0.0001745909
-0.06121223
0.0002998189
-4.419345e-05
-0.0005467871
-1.389459e-05
-0.06178332
-0.06084771
0.001157892
-0.004791307
0.01509347
0.01516445
0.01746417
0.01746303
-0.05994463
0.001588666
-0.001535756
-0.06036569
0.001809829
-0.0003956365
-0.06112407
0.001736702
-0.0001758324
-0.06207521
0.001296059
-4.511027e-05
0.0004297582
-1.227205e-05
-0.06303949
-0.06043744
0.001742406
-0.004766302
0.01493459
0.01503911
0.01733028
0.01731526
-0.05975895
0.002436586
-0.001526416
-0.06046756
0.002914622
-0.0003961982
-0.0615924
0.003037758
-0.0001762197
-0.06297828
0.002728119
-4.619218e-05
0.001890836
-1.174047e-05
-0.06442762
-0.05973453
0.002475582
-0.004718997
0.01469333
0.01483675
0.01711345
0.01707682
-0.05933307
0.003543283
-0.001508161
-0.06038487
0.004360802
-0.0003943867
-0.06194896
0.004773069
-0.0001712283
-0.06386131
0.004684337
-4.38699e-05
0.003950011
-1.11444e-05
-0.06590935
-0.05864559
0.003372873
-0.004633469
0.01434844
0.01453701
0.01677642
0.0167199
-0.05856673
0.004947318
-0.001482902
-0.06002698
0.006210304
-0.0003892527
-0.06211433
0.007023429
-0.0001630216
-0.06465835
0.007263831
-3.547886e-05
0.006738639
-4.995523e-06
-0.06744198
-0.05704907
0.004450667
-0.004497191
0.01387036
0.01411467
0.01627509
0.01620835
-0.05733842
0.006684744
-0.001448077
-0.05927414
0.008527246
-0.0003812312
-0.06198286
0.009886652
-0.0001544997
-0.06529301
0.01059934
-2.536293e-05
0.01042339
5.518609e-06
-0.06898328
-0.05482557
0.005717657
-0.004297484
0.01323911
0.01353948
0.01556724
0.01551023
-0.05551476
0.008771303
-0.001397362
-0.05798566
0.01136169
-0.0003635502
-0.06141176
0.01344899
-0.0001362401
-0.06563929
0.0148284
-1.534409e-06
0.0151832
4.074006e-05
-0.07043986
-0.05179437
0.007176475
-0.004039271
0.01240705
0.01276403
0.01462642
0.01457733
-0.0529123
0.01122057
-0.001331337
-0.0559698
0.0147692
-0.0003500206
-0.06021513
0.01782486
-0.0001305412
-0.06555214
0.0201637
1.699409e-06
0.0213588
5.114935e-05
-0.0717789
-0.04783269
0.008798851
-0.003703991
0.01134915
0.01175517
0.01342739
0.0133826
-0.04937224
0.01397795
-0.001217834
-0.05301342
0.01872207
-0.00031169
-0.05811773
0.0230187
-8.955402e-05
-0.06468604
0.0266727
5.929326e-05
0.02912673
0.0001492914
-0.07260327
-0.04269606
0.01057326
-0.003271385
0.01000097
0.0104476
0.01189166
0.01185281
-0.04462714
0.01701718
-0.00110814
-0.04881932
0.02323338
-0.000319135
-0.05481079
0.02917224
-0.0001620785
-0.06280958
0.03472376
-5.228143e-05
0.03923948
4.994732e-06
-0.07292733
-0.03639181
0.01241252
-0.002756729
0.008381325
0.008863126
0.01004265
0.01002218
-0.03861935
0.02016657
-0.0009218582
-0.04313438
0.02807501
-0.0003265965
-0.04976755
0.03601038
-0.0002049828
-0.05900827
0.04405571
-9.12286e-05
0.05151425
9.433189e-05
-0.07137739
-0.02844215
0.01416662
-0.002046086
0.006377598
0.00685452
0.00774064
0.007761375
-0.03084496
0.02369301
-0.001123627
-0.03544949
0.03364242
-0.0009628802
-0.04234814
0.04417458
-0.001265557
-0.05253947
0.05576995
-0.001522915
0.06815434
-0.001758255
-0.06742133
-0.01898604
0.003784906
-0.001983466
0.004088347
0.004227019
0.005165255
0.005185302
0.003448859
0.004574184
0.004662254
-0.02123919
0.006804183
-0.002318158
0.006027955
0.007682439
0.00774973
-0.02507404
0.009749538
-0.003373198
0.008794999
0.01109326
0.01121267
-0.03117392
0.01297047
-0.004418329
0.01180244
0.0148662
0.01505368
-0.04068669
0.01677385
-0.005669066
0.0152828
0.01930718
0.01958796
0.02131769
-0.00693161
0.0193637
0.02458665
0.02503794
-0.05590674
0.002648424
-0.002547855
-0.0003704239
0.0009494184
0.00112593
0.001131877
0.0008475358
0.003306732
-0.002970184
-0.0005720873
0.001960747
0.001629143
0.001939418
0.001510414
0.0038021
-0.003515787
-0.0007959664
0.002845573
0.002366808
0.002828033
0.002218777
0.004583681
-0.004398798
-0.001054732
0.003832578
0.003187816
0.003822078
0.002997848
0.005906148
-0.005862228
-0.001371634
0.005006611
0.00417236
0.005007735
0.003914858
0.008052717
-0.008288785
-0.001751742
0.006442396
0.005382093
0.006463371
0.005017643
0.01164751
-0.002237413
0.006931873
0.008316992
-0.02683893
-0.01248449
0.008269868
0.006394587
1.845263e-05
-0.0001932967
-1.316052e-05
-2.565735e-05
2.737394e-05
-0.0003507394
-2.033282e-05
-4.825895e-05
4.138232e-05
-0.00052527
-3.115957e-05
-7.54122e-05
6.115194e-05
-0.000724853
-4.692733e-05
-0.0001081251
9.365804e-05
-0.0009652676
-7.382846e-05
-0.0001486234
0.0001491199
-0.001266889
-0.0001230575
-0.0001961222
0.0002538185
-0.001666418
-0.0002195239
-0.0002537351
3.149653e-05
-0.0003799193
0.0005719189
-1.955917e-05
6.864192e-05
5.117608e-05
6.713683e-05
-0.0003908909
5.98528e-06
-0.0007868748
0.0009814937
-7.101588e-06
7.05903e-05
3.380938e-05
5.276251e-05
-0.0003506639
-1.370473e-05
-0.001230729
0.001434803
2.035613e-05
7.026817e-05
2.202042e-05
3.857683e-05
-0.0003415905
-2.450108e-05
-0.001706036
0.001949761
-2.067595e-06
8.451061e-05
2.243237e-05
3.712295e-05
-0.0003612211
-3.331775e-05
-0.002200587
0.00244288
2.990233e-05
9.844942e-05
2.704601e-05
3.843136e-05
-0.0004028044
-3.310992e-05
-0.002731304
0.003036095
2.270889e-05
0.0001232801
4.389473e-05
5.034641e-05
-0.0005119099
-2.718132e-05
-0.003367293
5.127187e-05
7.14415e-05
0.003732081
0.0001554685
6.785604e-05
-0.0006836442
0.0002642632
0.003107336
-0.01403681
-0.0002851823
5.902649e-05
-0.0004572415
0.0001123148
-2.934936e-05
0.003997752
0.003279971
0.00398792
0.0005285323
0.01405922
-0.01376307
-0.0002007018
-0.0002365857
-0.0004431798
0.00011409
-5.830793e-05
0.0005205228
0.01402138
-0.01365795
-0.0002187013
-0.0002353952
-0.0004543516
9.85205e-05
-7.403161e-05
0.0005282177
0.0138247
-0.01345542
-0.0002157511
-0.0002823565
-0.0004453276
0.0001124567
-6.652052e-05
0.0005304145
0.013636
-0.01328557
-0.0002294089
-0.0002716983
-0.0004377562
0.0001197973
-6.178744e-05
0.0005283415
0.01346617
-0.0131095
-0.0002398611
-0.0002772841
-0.0004318263
0.0001240623
-6.010197e-05
0.0005238828
0.01327462
-0.0002638386
-0.0002739633
0.0001263471
-0.01290121
-0.0004257843
-6.005737e-05
0.0004476166
0.0005330499
-0.01677385
-0.0003994034
-0.000394444
-3.871093e-05
0.0007740691
-3.54924e-05
5.042552e-05
0.0008670873
3.503515e-05
-0.06864866
-0.0002668241
-0.001528089
0.0002356567
-0.0002319032
-6.058718e-05
-0.0005454379
0.01705287
0.01731834
0.01684362
0.01695329
-0.06877586
-0.0003647873
-0.000125349
0.0003099297
-0.0002311703
0.0002456752
-0.0001899905
-0.0687079
-0.0005277962
-0.0002491364
0.0004294705
-0.0001647348
0.0003427103
-8.369492e-05
-0.06851388
-0.0005384865
-9.559868e-05
0.0003533685
-0.0001888674
0.000297149
-8.327313e-05
-0.06821281
-0.0007848874
-5.008785e-05
0.000392361
-0.0001484542
0.0002974239
-5.820257e-05
-0.00110728
-4.62895e-05
0.0004148954
-0.0001157696
0.0003199722
-2.226981e-05
-0.06771819
0.000898889
0.0001855601
-0.01651637
-7.782946e-05
-0.001056997
-3.730965e-05
0.0009091977
-3.4675e-05
-0.07023589
-4.907179e-05
-0.00189582
0.01711825
0.01711222
0.01686634
0.01680521
-0.07005798
-0.0001173048
-0.001668082
-0.06989977
-0.0004005409
-0.000475488
-0.06966648
-0.0005517336
-0.0003443288
-0.06939823
-0.0009703056
-9.885564e-05
-0.001452866
-9.348979e-05
-0.06899253
0.0009161879
-6.704208e-06
-0.01658252
2.194249e-05
-0.001379876
-3.241534e-05
0.0009246998
-3.515367e-05
-0.07024599
-2.200326e-05
-0.002561039
0.01717936
0.0171647
0.01689527
0.01688381
-0.06994936
-3.220423e-05
-0.001761033
-0.06971668
-0.0002618073
-0.0007051308
-0.06957965
-0.0004868184
-0.000327381
-0.06946738
-0.001010355
-0.0001081749
-0.001658908
-4.500316e-05
-0.06923371
0.0009167334
-1.452955e-05
-0.01653826
2.066391e-05
-0.001416356
-3.377872e-05
0.0009224188
-3.711043e-05
-0.07028666
0.0001928363
-0.002654532
0.01715722
0.01714933
0.01686986
0.01686046
-0.06989055
0.0002109147
-0.002154415
-0.06971986
3.02808e-05
-0.0008179673
-0.06968587
-0.0002415369
-0.0004406502
-0.06975587
-0.0008433393
-0.0001329999
-0.001628562
-5.646632e-05
-0.06974648
0.0009141561
-2.397228e-05
-0.016529
3.109672e-05
-0.001404045
-3.561133e-05
0.0009205308
-3.910086e-05
-0.07020977
0.0004439509
-0.002785991
0.01715068
0.01713655
0.01684815
0.01684337
-0.06992209
0.0005720399
-0.00217615
-0.06986344
0.0004720312
-0.0008820876
-0.07003889
0.0002142774
-0.0004443637
-0.07036445
-0.0004189842
-0.0001403504
-0.001314763
-4.007914e-05
-0.0706501
0.0009102526
-3.38957e-05
-0.01646666
4.568229e-05
-0.001401462
-3.764182e-05
0.0009179328
-4.074308e-05
-0.0701131
0.0008156163
-0.002808455
0.01709814
0.01708176
0.01680147
0.01678356
-0.06994512
0.001099377
-0.00223677
-0.07010593
0.001152517
-0.0009104889
-0.07053865
0.0009502865
-0.0004778852
-0.07119191
0.0003403122
-0.000150231
-0.0006298286
-4.39753e-05
-0.07184678
0.0009040839
-5.345114e-05
-0.01636436
6.876066e-05
-0.001394216
-4.016011e-05
0.0009138245
-4.269213e-05
-0.06985394
0.001308409
-0.002809979
0.01700598
0.01698474
0.01670773
0.01668138
-0.06988448
0.001833275
-0.002239113
-0.07031866
0.002111452
-0.0009204005
-0.07109763
0.002034878
-0.0004814642
-0.07215816
0.001508245
-0.000152513
0.0005108443
-3.942791e-05
-0.07327169
0.0008948917
-8.020602e-05
-0.01620086
9.999133e-05
-0.001383749
-4.288054e-05
0.0009067129
-4.509612e-05
-0.06937337
0.00196523
-0.002779517
0.01685203
0.01681596
0.01655291
0.01650887
-0.06964125
0.002815309
-0.002240572
-0.07041816
0.003412975
-0.000920815
-0.07161982
0.003546436
-0.0004861275
-0.0731823
0.003178822
-0.0001542971
0.002214597
-3.736498e-05
-0.07486043
0.000881998
-0.0001146183
-0.01595623
0.000139525
-0.001368031
-4.580245e-05
0.0008957337
-4.793487e-05
-0.06855395
0.002808422
-0.002738834
0.01661205
0.01655451
0.01631574
0.0162483
-0.06912175
0.004093765
-0.002218813
-0.07030766
0.005118728
-0.0009142394
-0.0720237
0.005572392
-0.000481151
-0.07419596
0.005458704
-0.0001514992
0.004606623
-3.259966e-05
-0.07656653
0.0008648749
-0.0001566785
-0.01560561
0.0001870144
-0.001347239
-4.840503e-05
0.0008805285
-5.043674e-05
-0.06728716
0.003841607
-0.002677437
0.01625997
0.01618172
0.01597198
0.01588429
-0.06821268
0.005715355
-0.002178977
-0.06988093
0.007297902
-0.0009001858
-0.07221141
0.008210172
-0.0004703244
-0.07512245
0.008476439
-0.0001421696
0.007845819
-2.205412e-05
-0.07834459
0.0008417758
-0.0002086244
-0.01511529
0.0002436727
-0.001318956
-5.011437e-05
0.0008594844
-5.214583e-05
-0.06544592
0.005090392
-0.002586605
0.01576299
0.01566017
0.01548592
0.01537746
-0.06677887
0.007720307
-0.002120076
-0.06900737
0.01002412
-0.0008789522
-0.07206581
0.01157068
-0.0004565702
-0.07587337
0.01239039
-0.000131743
0.01214043
-8.72214e-06
-0.08015375
0.0008107873
-0.0002697217
-0.01445468
0.0003088583
-0.001280746
-5.087638e-05
0.0008303482
-5.30284e-05
-0.06288266
0.006571154
-0.002456893
0.01508794
0.01495756
0.01482483
0.01469099
-0.06466828
0.01014102
-0.00203246
-0.06753114
0.01336485
-0.0008414209
-0.0714333
0.01576203
-0.0004254403
-0.07630815
0.01736724
-0.0001035512
0.01772854
3.295799e-05
-0.08188848
0.0007694897
-0.0003390604
-0.01358139
0.0003798249
-0.001227768
-5.155342e-05
0.0007909471
-5.391748e-05
-0.05941283
0.008293788
-0.002287617
0.01418584
0.01402742
0.01394271
0.01378258
-0.06168633
0.01300655
-0.001923362
-0.06525491
0.01738805
-0.000804631
-0.07012752
0.02092141
-0.0004173223
-0.07629592
0.02364952
-0.000112193
0.0250006
2.055294e-05
-0.08353739
0.000716083
-0.0004126612
-0.01246143
0.0004550304
-0.001157211
-5.240997e-05
0.0007389764
-5.514715e-05
-0.05488011
0.01022774
-0.002064535
0.01302502
0.01284106
0.01280818
0.01263244
-0.05765166
0.01631097
-0.001750696
-0.06193679
0.02209933
-0.0007378394
-0.06783702
0.02710955
-0.0003774805
-0.0754479
0.03138473
-6.504634e-05
0.03424161
0.0001175012
-0.08465712
0.000647491
-0.0004927847
-0.01103599
0.0005281536
-0.001059623
-5.331009e-05
0.0006713257
-5.627203e-05
-0.04903977
0.01237475
-0.001771204
0.01153322
0.01133702
0.0113489
0.01117344
-0.05227597
0.02004011
-0.001601081
-0.05727719
0.02753541
-0.000754012
-0.06427631
0.034477
-0.0005304185
-0.07358846
0.0409893
-0.0003447046
0.04630729
-0.0002785193
-0.08537063
0.0005628253
-0.0005663956
-0.009310389
0.0005977859
-0.0009362038
-5.264817e-05
0.0005867096
-5.562804e-05
-0.04179836
0.01461405
-0.001452012
0.009726453
0.009528785
0.009579622
0.009419493
-0.04538479
0.02401693
-0.001312253
-0.05084152
0.03346547
-0.0007999342
-0.05867
0.04279176
-0.0006912674
-0.06952541
0.05229428
-0.000540802
0.06120159
-0.0002830803
-0.08404231
0.0004528432
-0.000646974
-0.00718321
0.0006454945
-0.000759756
-5.058165e-05
0.0004780615
-5.353452e-05
-0.03275407
0.01689228
-0.0009155694
0.007459426
0.007278626
0.007362374
0.007244898
-0.0363144
0.02791384
-0.001460202
-0.04185001
0.03948767
-0.001449468
-0.05010399
0.05183209
-0.002051912
-0.06229177
0.06552778
-0.002568638
0.08028347
-0.003230379
-0.07990154
0.0003247674
-0.0007015699
-0.004810995
0.0006892861
-0.0005033766
-4.115227e-05
0.0003480573
-4.122101e-05
-0.02156404
0.004335254
-0.0009927678
0.004928504
0.004838775
0.004890867
0.004890937
0.004605529
0.004368342
0.004607414
-0.02403493
0.007089535
-0.001057391
0.007404935
0.007091425
0.007538074
-0.02842687
0.01035715
-0.001827198
0.01076556
0.01028663
0.01092426
-0.03562611
0.01396303
-0.002410402
0.01451262
0.0138533
0.01469445
-0.04741171
0.01829117
-0.003019136
0.01902004
0.01811443
0.01923781
0.02347871
-0.003261519
0.02441005
0.02319503
0.02472549
-0.0666076
0.000178936
-0.002681196
-0.0002022103
0.000267442
0.0002575132
0.0002478318
0.0003255773
-0.0009072848
-5.350934e-06
0.0001429239
6.681186e-06
1.902661e-05
0.002592567
-0.002452587
0.004097573
7.867525e-05
6.93178e-05
0.002647757
-0.002722785
0.007000549
9.469594e-05
0.0001879134
0.003118451
-0.003340919
0.01026348
0.0001282271
0.0003529503
0.003895308
-0.004329939
0.01396014
8.457333e-05
0.0005804292
0.005199988
-0.006003567
0.01846735
4.696879e-05
0.0008443885
0.00744493
-0.008924662
0.02413481
-2.075197e-05
0.001122093
0.01147767
0.03160611
-0.0001044569
-0.02978626
-0.01431516
5.515424e-06
4.614335e-05
0.0001836846
1.246479e-05
6.565597e-05
4.808154e-05
6.696606e-05
1.045052e-05
-1.722311e-05
2.922167e-06
-0.0004246609
0.003638156
2.169337e-05
1.760829e-05
0.0001057844
-0.0004442604
-0.0004380611
0.000183761
0.0003123463
0.0001591851
0.0002568811
-0.002790535
-6.964392e-05
2.535597e-05
-0.0004721422
-0.0005061294
0.005418559
-6.114439e-05
4.405076e-06
0.0001460616
0.0001883963
0.0003314936
0.0001235879
0.0003264394
-0.002816692
-8.283765e-05
5.988814e-05
0.007268809
-0.0001923832
-2.171039e-05
0.0001835392
0.0001362436
0.0003554888
0.0001381934
0.000387554
-0.002851404
-6.177649e-05
7.600539e-05
0.009196319
-9.320737e-05
-2.973326e-05
0.0001691199
0.0001098071
0.0004016443
0.0001442058
0.0004267471
-0.003042115
-8.843963e-05
7.445976e-05
0.01144196
-7.507848e-05
-7.070616e-05
0.000190218
0.0001070644
0.000480432
0.0001613287
0.000471542
-0.003483639
-0.0001140886
8.729147e-05
-0.0001016664
-7.153935e-05
0.0002160988
0.0001620816
0.0006047246
0.0001742327
0.0005530809
0.01425105
-0.004312601
-0.0001398967
0.0001063951
0.003299808
-4.303685e-05
-0.01402806
-0.0005804647
6.884637e-05
0.004004128
0.003286047
0.003992733
-0.05939446
-0.001408978
-0.0002338055
0.001129006
-0.001946001
0.0005647845
-3.078261e-05
0.01337796
0.01708076
0.01387982
0.0169817
-0.05835327
-0.001151396
0.0002219966
0.001837196
-0.001917622
0.0001859737
-0.0002173528
-0.05824144
-0.0002343289
-0.0002213954
0.002013737
-0.001828156
0.0002885303
-0.0001302183
-0.05779282
-0.0005025657
-3.705463e-05
0.001928575
-0.001847606
0.0001988348
-0.0001888098
-0.0005182135
-9.110585e-05
0.001932355
-0.001811865
0.0002156837
-0.0001732949
-0.05734638
0.0009797774
0.0002118534
-0.0167533
-0.001086927
-0.0001341206
1.005145e-05
0.0009822293
9.815245e-06
-0.06715079
-0.0006076053
-0.0007804899
0.000259146
-0.0004371088
0.0001537812
-0.0004290599
0.01673823
0.01708111
0.01670907
0.01693563
-0.06811853
-0.0006668238
0.0001002334
-0.06851086
-0.000825916
-0.0001822898
-0.06818648
-0.0005932764
-6.104076e-05
-0.06789993
-0.0008100881
-2.911787e-05
-0.001054418
-2.563007e-05
-0.06738439
-0.06701018
-0.0008833099
-0.001027894
0.001850162
-0.0003460991
0.003153153
-0.0003231463
0.00195243
-0.0002408002
0.003279568
-0.0002298963
-0.06843182
-0.0001423815
-0.0009394046
-0.06915113
-0.0005833724
-0.001032225
-0.06940665
-0.0006058541
-0.000440035
-0.06942266
-0.0006349066
-0.0002866893
-0.06922042
-0.001016676
-9.452234e-05
-0.001444703
-6.799391e-05
-0.06885563
-0.06716743
8.79594e-06
-0.001676655
0.003454074
-0.0002894071
0.003561906
-0.0002606815
-0.06853563
-4.249603e-05
-0.001292722
-0.06958275
-0.0001550562
-0.001142228
-0.06982109
-0.0003624166
-0.000710231
-0.06991053
-0.0005495521
-0.0003233029
-0.06988202
-0.001039584
-0.000113791
-0.001664712
-3.755807e-05
-0.06966946
-0.0672282
0.0001072006
-0.001927116
0.003600876
-0.0002384033
0.003612666
-0.0002302908
-0.0687748
0.0002138256
-0.001364256
-0.06966816
0.0001062459
-0.001522354
-0.06992564
-1.535665e-05
-0.0009075577
-0.07015462
-0.000302174
-0.0004590592
-0.07031305
-0.0008629027
-0.0001512551
-0.001647131
-4.52237e-05
-0.07034188
-0.06717212
0.000199721
-0.001951889
0.003592623
-0.0002313305
0.003605144
-0.0002273679
-0.06874175
0.0004602163
-0.001462742
-0.06978135
0.0005427992
-0.00157311
-0.07013569
0.0004635385
-0.001006646
-0.07057289
0.000184569
-0.0004939131
-0.07098499
-0.0004238071
-0.0001673524
-0.001330029
-3.260811e-05
-0.07130957
-0.06698051
0.0003215871
-0.001945759
0.0035841
-0.0002288897
0.00360109
-0.0002298244
-0.06868829
0.0008297821
-0.00147023
-0.06983151
0.001092446
-0.001643194
-0.07039016
0.001163245
-0.001051551
-0.07108887
0.0009416903
-0.0005363016
-0.07182961
0.000348986
-0.0001822945
-0.0006382742
-3.530092e-05
-0.07253004
-0.06661392
0.0004896282
-0.001933285
0.003563405
-0.0002325877
0.003586818
-0.0002353223
-0.06843609
0.001318352
-0.00147637
-0.06978579
0.001857106
-0.001654072
-0.07061065
0.002136892
-0.001069191
-0.07165811
0.002054268
-0.0005465847
-0.0728084
0.001533949
-0.0001871856
0.0005172934
-3.119431e-05
-0.0739722
-0.06599522
0.0007076189
-0.001914005
0.003531189
-0.0002380178
0.003563908
-0.0002420694
-0.0679673
0.001968347
-0.001457424
-0.0695545
0.002863786
-0.001660047
-0.07071703
0.003452518
-0.001073921
-0.07219038
0.003595952
-0.0005544675
-0.07384807
0.003227169
-0.0001898228
0.002243767
-2.872767e-05
-0.07558318
-0.0650339
0.0009816771
-0.001885888
0.003481796
-0.0002446403
0.003526928
-0.0002492365
-0.06717014
0.002798956
-0.001433197
-0.06904767
0.004168499
-0.001645994
-0.07062036
0.005179435
-0.001068479
-0.07261265
0.005659494
-0.0005524024
-0.07488856
0.005539242
-0.0001876597
0.004668607
-2.265028e-05
-0.07732335
-0.06362917
0.001317477
-0.001845914
0.003410403
-0.0002522283
0.003470762
-0.0002563085
-0.06594597
0.003836971
-0.001398644
-0.06815662
0.005818338
-0.001618169
-0.0702165
0.007392559
-0.001053435
-0.0728306
0.008347276
-0.0005440067
-0.07585797
0.008604203
-0.0001797616
0.007954525
-1.036574e-05
-0.07915557
-0.06165517
0.001720875
-0.001789645
0.003310605
-0.0002606582
0.003388348
-0.0002636229
-0.06416293
0.00510713
-0.001348999
-0.06675281
0.007861999
-0.001573852
-0.06938367
0.01017255
-0.001028092
-0.07273983
0.01177684
-0.000529966
-0.07668312
0.01258438
-0.0001686327
0.01231427
3.216423e-06
-0.08105481
-0.05898461
0.002192653
-0.001713899
0.003177059
-0.0002697624
0.003274598
-0.0002715836
-0.06168002
0.006624447
-0.001278796
-0.06468939
0.01034464
-0.00150573
-0.06797181
0.01359742
-0.0009838737
-0.0721917
0.01607177
-0.0005004866
-0.07722774
0.01766037
-0.0001435044
0.01800188
3.867829e-05
-0.08292108
-0.05544444
0.002734663
-0.001611257
0.002999889
-0.0002801012
0.003119163
-0.0002802766
-0.05833011
0.008408974
-0.001186471
-0.0617908
0.01330236
-0.001420388
-0.06581299
0.01774879
-0.000933818
-0.07104399
0.02137266
-0.0004872176
-0.07742412
0.02407588
-0.0001475921
0.02540256
2.989322e-05
-0.08483414
-0.05090924
0.003328018
-0.001481505
0.002773808
-0.0002881248
0.002917356
-0.0002828824
-0.05393798
0.01043426
-0.001061078
-0.05785391
0.01675564
-0.001288042
-0.062634
0.02264524
-0.000854195
-0.06893661
0.02775016
-0.0004523846
-0.07679474
0.03200665
-0.0001377028
0.03486758
5.975309e-05
-0.08620202
-0.0451339
0.003988907
-0.00130396
0.002480786
-0.0002947862
0.002647297
-0.0002829317
-0.04833405
0.01275969
-0.0008964775
-0.05267484
0.02066485
-0.0011695
-0.05825482
0.02831301
-0.0008418095
-0.06574192
0.03531175
-0.0006049077
-0.07547489
0.04181852
-0.0004236125
0.0471801
-0.0003307595
-0.08773519
-0.03813997
0.004679708
-0.001099628
0.002126386
-0.0002849794
0.002309879
-0.0002654656
-0.04123437
0.01512279
-0.0007206981
-0.0458834
0.02495365
-0.0009520239
-0.05184814
0.03432399
-0.0008461801
-0.06005949
0.04367173
-0.0008399104
-0.07119686
0.05323442
-0.0008193364
0.0623888
-0.0007038346
-0.0859848
-0.02944268
0.005807707
-0.000700973
0.001651215
-0.00028327
0.001809153
-0.0002478229
-0.03264953
0.01783184
-0.0004177715
-0.03664055
0.02842274
-0.0009382741
-0.04233714
0.03959
-0.001018889
-0.05096036
0.0517349
-0.001491875
-0.06382832
0.06540956
-0.00187583
0.08042822
-0.002346327
-0.08275178
-0.01991805
0.001816089
-0.0003812456
0.001935165
0.002176822
0.001956989
0.0009908915
-0.0002267383
0.0007935805
-0.0001242534
-0.02067577
0.004387935
-0.0004990974
0.004603947
0.00444025
0.004663764
-0.02300905
0.03016695
-0.0004683322
-0.02680384
0.04246895
-0.0009113588
-0.03332306
0.05710275
-0.001259028
-0.04410878
0.07479861
-0.001622463
0.09653508
-0.001740992
-0.06173616
0.0002781763
-0.002443746
-0.0001097966
0.0003150882
0.0004189905
0.0003176547
0.0004198928
0.002110553
-0.0001590674
-0.001774598
0.004131799
7.924738e-05
-0.006147915
-0.0005707995
-7.310496e-05
-0.0001038688
0.001047015
0.001481722
0.001781957
0.001608246
0.001816935
0.00202505
-0.006566868
-0.0007279554
-0.0001550024
-0.0001714733
0.002249453
0.002107046
-0.009019999
-0.001224124
-5.487127e-05
-0.000107144
0.003099707
0.002828919
-0.01371086
-0.001597125
1.190021e-05
-6.059089e-05
0.00406127
0.003665537
-0.002101588
0.000140295
6.795438e-05
0.00540756
0.004791687
-0.02298898
0.003018843
-0.000987301
-0.0001915693
-0.0003172522
0.0001222526
-0.0007421688
-0.0009028028
0.003865242
-0.0007598056
-8.644587e-05
-0.000184286
0.0001841379
0.004946315
-0.0009859354
-8.767649e-05
-0.0002528082
0.0002453477
0.006206639
-0.001143619
-0.0001253082
-0.000273645
0.0002822501
-0.001337615
-0.0001437784
-0.0004106116
0.0003039006
0.007794746
4.309438e-05
-3.629597e-05
0.0001664028
2.571125e-05
6.08783e-05
4.456239e-05
6.130081e-05
-0.0003656538
0.003394295
4.423248e-05
-0.0004141209
-0.0004100377
0.0001454196
0.0002659268
0.0001536434
0.0003546698
-0.002571267
-0.0004675796
-0.0004734891
0.00507849
8.512597e-06
-0.002741153
0.006971277
-0.0001067079
-0.002738268
0.008876752
-3.299168e-05
-0.002951626
0.01105618
-1.870647e-05
-0.003379418
-2.668811e-06
0.01378271
-0.004163137
0.003368001
8.712405e-05
-0.0141911
-0.0006236344
-5.204129e-05
0.004027298
0.003353514
0.004030835
-0.06024824
-0.002169188
-0.0002031786
0.01408261
0.01713193
0.01409694
0.01707531
-0.05870374
-0.001306924
-1.558586e-05
-0.05860135
-0.0002397119
-8.407387e-05
-0.05815239
-0.0004684007
-1.761652e-05
-0.000493656
-3.703235e-05
-0.05771281
0.0009797934
-2.81959e-06
-0.01670228
-0.001314185
1.354275e-06
-1.022716e-05
0.0009827342
-1.046365e-05
-0.06677085
-0.0006041878
-0.000270485
0.000168823
-0.0004042501
0.0001587091
-0.0003948862
0.01670838
0.01697686
0.01670203
0.01694938
-0.06808012
-0.0007801509
2.047166e-05
-0.06857631
-0.0008973796
-9.565285e-05
-0.06819684
-0.0006333027
-4.692704e-05
-0.06787792
-0.0007968511
-1.959161e-05
-0.001033556
-1.809413e-05
-0.06734556
-0.06687944
-0.001198482
3.424995e-06
0.003425276
-0.0003082215
0.003526182
-0.0003019521
-0.06799849
-0.0001362642
-0.0002882795
-0.06866259
-0.000709728
-0.0004385533
-0.06905768
-0.0007165224
-0.0002258082
-0.06912082
-0.0006856234
-0.000171239
-0.06892787
-0.00102793
-5.639896e-05
-0.001435723
-3.950823e-05
-0.06855419
-0.0669107
4.282291e-05
-5.200384e-05
-0.06795358
-7.267418e-06
-0.000378828
-0.0691387
-0.0001779816
-0.0004888647
-0.06975015
-0.0004239653
-0.0003913475
-0.06994952
-0.0005909963
-0.0002185651
-0.06995487
-0.001055846
-8.053382e-05
-0.001670466
-2.850787e-05
-0.06972918
-0.06711763
0.0001256794
-0.0001173987
-0.06827035
0.0002125552
-0.0004313599
-0.06936931
8.352846e-05
-0.0006849027
-0.07010465
-5.153122e-05
-0.0005446643
-0.07047365
-0.0003260968
-0.0003549638
-0.07068393
-0.0008780933
-0.0001187352
-0.001656376
-3.820457e-05
-0.07070505
-0.0670032
0.000188489
-0.0001209531
-0.06823348
0.0004471376
-0.0004670378
-0.06953394
0.000534856
-0.0007239812
-0.07040977
0.0004452403
-0.0006275915
-0.07098706
0.00017822
-0.0004209428
-0.07146081
-0.000430365
-0.000141339
-0.001338581
-3.096008e-05
-0.07178026
-0.06683699
0.0002971909
-0.0001305868
-0.06819921
0.0008207559
-0.0004816206
-0.06961804
0.001076028
-0.0007655327
-0.07071507
0.001157102
-0.0006663914
-0.07155791
0.0009474196
-0.0004626679
-0.07236712
0.0003530793
-0.0001565264
-0.0006402035
-3.349376e-05
-0.07306731
-0.06645981
0.0004524487
-0.000129502
-0.06794111
0.001311859
-0.0004861636
-0.06958346
0.001836471
-0.0007721707
-0.07095708
0.002142687
-0.0006811577
-0.0721575
0.002076105
-0.0004748466
-0.07338304
0.001553703
-0.0001622775
0.0005284372
-3.150792e-05
-0.07455136
-0.06584338
0.000659263
-0.0001311293
-0.06747197
0.001965841
-0.0004828041
-0.06935775
0.002837342
-0.0007751417
-0.0710751
0.003472559
-0.0006864476
-0.07270925
0.003638234
-0.0004824444
-0.07444953
0.003269462
-0.0001652963
0.002276082
-3.048552e-05
-0.07619542
-0.06488119
0.0009205021
-0.0001298066
-0.06667311
0.002800488
-0.0004759162
-0.06885526
0.004140789
-0.0007672882
-0.07098773
0.005220303
-0.0006837558
-0.07315198
0.005732143
-0.0004820573
-0.07552063
0.005615248
-0.000164795
0.004733848
-2.728429e-05
-0.07797376
-0.06347662
0.001242175
-0.0001290913
-0.0654544
0.003843812
-0.0004641838
-0.06797422
0.005796364
-0.0007539206
-0.07059834
0.007465743
-0.0006747597
-0.07339882
0.008465521
-0.0004769008
-0.07653291
0.008730483
-0.0001609066
0.008070548
-2.087005e-05
-0.07985911
-0.06150147
0.001629596
-0.0001250732
-0.06368456
0.005124171
-0.0004462587
-0.06659023
0.007860008
-0.0007318216
-0.0697913
0.01029743
-0.0006587198
-0.07335461
0.01196592
-0.0004670537
-0.07742406
0.0127867
-0.0001554008
0.01250568
-1.289926e-05
-0.08184309
-0.05882456
0.002084703
-0.0001215063
-0.06122394
0.006664464
-0.0004197034
-0.06455947
0.01038844
-0.0006986205
-0.06842221
0.01380749
-0.0006311946
-0.07288032
0.01637148
-0.000447957
-0.07807183
0.01797755
-0.0001428435
0.01830758
4.475539e-06
-0.08383953
-0.05528431
0.002613454
-0.0001161048
-0.05791369
0.00849355
-0.0003861649
-0.06171675
0.01342903
-0.000657918
-0.06633744
0.01809511
-0.0006007585
-0.07185454
0.0218365
-0.0004351367
-0.07843555
0.02456212
-0.0001511617
0.02588019
-9.796548e-06
-0.08596847
-0.0507434
0.003199855
-0.0001094833
-0.05356213
0.01058967
-0.000338467
-0.05785118
0.01702216
-0.0005921184
-0.06326503
0.0232066
-0.0005518362
-0.06991195
0.02845185
-0.0004208217
-0.07803615
0.03272266
-0.0001740404
0.03559291
-3.391283e-05
-0.08765521
-0.04498135
0.003870472
-9.8e-05
-0.04802734
0.01302075
-0.0002815573
-0.05276954
0.02113457
-0.0005397103
-0.0590499
0.0291787
-0.0005335527
-0.06692947
0.03623564
-0.0005091298
-0.07700203
0.04279285
-0.0004212513
0.04825737
-0.0003818794
-0.08961536
-0.03796678
0.004595403
-8.747168e-05
-0.04094517
0.01549404
-0.0002155993
-0.0459968
0.02565794
-0.0004237528