/*--------------------------------*- C++ -*----------------------------------*\
  =========                 |
  \\      /  F ield         | OpenFOAM: The Open Source CFD Toolbox
   \\    /   O peration     | Website:  https://openfoam.org
    \\  /    A nd           | Version:  7
     \\/     M anipulation  |
\*---------------------------------------------------------------------------*/
FoamFile
{
    version     2.0;
    format      ascii;
    class       volVectorField;
    location    "0.06";
    object      U;
}
// * * * * * * * * * * * * * * * * * * * * * * * * * * * * * * * * * * * * * //

dimensions      [0 1 -1 0 0 0 0];

internalField   nonuniform List<vector> 
109978
(
(-0.282441 -0.0102116 -0.004991712)
(-0.2775596 -0.01324923 0.003373809)
(-0.2764932 -0.01270283 0.002768)
(-0.2757126 -0.01377509 0.00274948)
(-0.2742929 -0.01388965 0.00269899)
(-0.2724364 -0.01399382 0.002649445)
(-0.286601 -0.001033959 -0.01081053)
(-0.2844063 -0.003868053 0.007124317)
(-0.2827243 -0.003882046 0.00510459)
(-0.2821675 -0.005356787 0.004718444)
(-0.2806009 -0.005808965 0.004582621)
(-0.2785591 -0.006309075 0.004417131)
(-0.2881471 -0.001086027 -0.0112065)
(-0.2853384 -0.002297162 0.004332664)
(-0.2836578 -0.003677131 0.004372559)
(-0.2828159 -0.005061648 0.004108912)
(-0.281311 -0.006092519 0.004059499)
(-0.2793814 -0.007118664 0.004025)
(-0.2892215 -0.001633846 -0.01131318)
(-0.2867039 -0.003150133 0.004018729)
(-0.2849822 -0.004619695 0.004303551)
(-0.2840831 -0.006184429 0.004123648)
(-0.282546 -0.007598608 0.004038644)
(-0.2805903 -0.008975682 0.003987263)
(-0.2908848 -0.002161714 -0.01146645)
(-0.2884062 -0.004006977 0.004028828)
(-0.2866233 -0.005794787 0.004281902)
(-0.2856533 -0.00759139 0.004114505)
(-0.2840463 -0.009333144 0.004011619)
(-0.282043 -0.01104822 0.003961583)
(-0.2928824 -0.002632506 -0.01156573)
(-0.290422 -0.004834904 0.004026191)
(-0.2886064 -0.006956242 0.004292906)
(-0.2875709 -0.009072002 0.004116742)
(-0.28589 -0.01115388 0.004002201)
(-0.2838192 -0.01321272 0.003952618)
(-0.2952736 -0.003100051 -0.01168384)
(-0.2927866 -0.005666963 0.004035598)
(-0.2909296 -0.008144655 0.004301187)
(-0.2898259 -0.01060106 0.004117526)
(-0.2880693 -0.01302974 0.003999587)
(-0.2859229 -0.015427 0.003948212)
(-0.2980344 -0.00356301 -0.01180964)
(-0.2955046 -0.006505396 0.004052568)
(-0.2936056 -0.009342783 0.004316844)
(-0.2924206 -0.01215548 0.004123694)
(-0.2905833 -0.01493358 0.004001836)
(-0.2883607 -0.01767667 0.003948575)
(-0.3011674 -0.004031302 -0.01194444)
(-0.2985871 -0.007358504 0.004075068)
(-0.2966348 -0.01056723 0.00432952)
(-0.2953669 -0.01374099 0.004131924)
(-0.2934434 -0.01687464 0.004006108)
(-0.2911405 -0.01996717 0.003951573)
(-0.3046792 -0.004506851 -0.01209177)
(-0.3020387 -0.008229793 0.004102971)
(-0.3000211 -0.01181361 0.004338374)
(-0.2986678 -0.01535765 0.004140615)
(-0.296654 -0.01885213 0.004011197)
(-0.294288 -0.02230132 0.003963249)
(-0.3085767 -0.004992362 -0.01225054)
(-0.3058716 -0.009122062 0.004136884)
(-0.3037863 -0.01308976 0.004352559)
(-0.3023401 -0.01701182 0.004151291)
(-0.3002245 -0.02087458 0.004018369)
(-0.2978132 -0.02468776 0.003983111)
(-0.3128713 -0.005492254 -0.01242177)
(-0.3100927 -0.01003877 0.004178467)
(-0.3079281 -0.01439796 0.004360757)
(-0.3063916 -0.01870698 0.00416413)
(-0.3041845 -0.02294734 0.004033551)
(-0.3017336 -0.02713457 0.004014455)
(-0.3175722 -0.006009219 -0.01260905)
(-0.3147179 -0.0109827 0.004224243)
(-0.3124641 -0.01574402 0.004369432)
(-0.3108267 -0.02044953 0.004175968)
(-0.3085384 -0.0250788 0.00405483)
(-0.3060315 -0.02964559 0.004054492)
(-0.3226907 -0.006544821 -0.01281177)
(-0.319757 -0.01195807 0.004272135)
(-0.3174054 -0.01713284 0.004378141)
(-0.3156546 -0.02224605 0.004187274)
(-0.3133112 -0.02727662 0.004086759)
(-0.3107562 -0.03224367 0.004115501)
(-0.3282397 -0.007100551 -0.01303219)
(-0.325225 -0.01296823 0.00432232)
(-0.3227585 -0.0185679 0.004380524)
(-0.3208825 -0.02410079 0.004195616)
(-0.3185065 -0.02954666 0.004129576)
(-0.3158931 -0.03493589 0.004193534)
(-0.3342359 -0.007679448 -0.01327107)
(-0.3311365 -0.01401786 0.004375072)
(-0.3285442 -0.02005597 0.004383205)
(-0.3265517 -0.0260249 0.004213501)
(-0.3241258 -0.03190041 0.004180648)
(-0.3214442 -0.03772236 0.004286863)
(-0.3406977 -0.008284021 -0.01352839)
(-0.3375099 -0.01511111 0.004430265)
(-0.3347746 -0.02160309 0.004382016)
(-0.33269 -0.02802789 0.004245388)
(-0.3302105 -0.03435523 0.00425132)
(-0.3274226 -0.04061324 0.004378501)
(-0.3476463 -0.008917395 -0.01380679)
(-0.3443613 -0.01625408 0.004487689)
(-0.3414734 -0.02321706 0.004382055)
(-0.3392934 -0.03011347 0.004285038)
(-0.3367426 -0.03691505 0.004333635)
(-0.3338424 -0.04362169 0.004466081)
(-0.3551009 -0.009583886 -0.01410689)
(-0.3517131 -0.01745181 0.004547411)
(-0.3486723 -0.02490787 0.004396138)
(-0.3463808 -0.03229507 0.004328696)
(-0.3437399 -0.0395885 0.004426171)
(-0.3407147 -0.04676447 0.004558995)
(-0.3630824 -0.01028731 -0.01443164)
(-0.3595856 -0.01871195 0.004610283)
(-0.3563991 -0.02668646 0.004431238)
(-0.3539899 -0.03458757 0.004392303)
(-0.3512284 -0.04238899 0.004522185)
(-0.3480587 -0.05006326 0.004656268)
(-0.3716129 -0.01103141 -0.01478168)
(-0.3680069 -0.02004019 0.004677567)
(-0.3646786 -0.02856142 0.004484377)
(-0.3621312 -0.03700459 0.00447037)
(-0.3592245 -0.0453313 0.004610081)
(-0.3558964 -0.0535176 0.004759475)
(-0.3807198 -0.01181481 -0.01515577)
(-0.3770069 -0.02144213 0.004746138)
(-0.3735361 -0.03054094 0.004551818)
(-0.3708227 -0.03955715 0.004557014)
(-0.3677487 -0.04843593 0.004704524)
(-0.3642396 -0.05715304 0.004867468)
(-0.3760857 -0.01287897 -0.01073412)
(-0.3866303 -0.02292739 0.004810182)
(-0.3830005 -0.03264479 0.004620312)
(-0.3801008 -0.04226623 0.004649445)
(-0.3768449 -0.05173941 0.004801639)
(-0.3731179 -0.06100119 0.004982777)
(-0.2811453 -0.01183665 -0.01204036)
(-0.277848 0.003012526 -0.01178685)
(-0.2770951 0.001882879 -0.01286414)
(-0.276036 0.001596759 -0.01327501)
(-0.2746255 0.001490261 -0.01347082)
(-0.2726663 0.001412226 -0.01333217)
(-0.2827947 -0.006039918 -0.004383107)
(-0.2832266 -0.004306232 -0.002602315)
(-0.2802101 -0.001373354 4.700405e-05)
(-0.2805148 -0.001864137 -3.317535e-05)
(-0.2789219 -0.002164662 0.0002249395)
(-0.2776286 -0.002784818 0.0001327009)
(-0.2811824 -0.000597819 -0.003515504)
(-0.2833908 -0.000880916 -0.001056007)
(-0.281944 -0.001827892 0.0003362994)
(-0.2814671 -0.002853871 0.0004956138)
(-0.279944 -0.00376506 0.0002582748)
(-0.2783723 -0.004626763 0.0001579594)
(-0.2822015 -0.0004196157 -0.003300419)
(-0.284626 -0.002430761 -0.002440272)
(-0.282214 -0.002927356 8.45492e-05)
(-0.2823813 -0.004192667 6.294384e-05)
(-0.2806659 -0.005214404 0.0001234022)
(-0.2793044 -0.006382618 3.272214e-05)
(-0.2833811 -0.0003545936 -0.0032623)
(-0.2858195 -0.002112117 -0.001917259)
(-0.283724 -0.003763604 0.0001787255)
(-0.2837623 -0.005208042 0.0003102339)
(-0.2821387 -0.006787096 0.0001983731)
(-0.2806715 -0.008280396 0.0001110628)
(-0.2851301 -0.0004606286 -0.00338108)
(-0.2875831 -0.00298618 -0.002172341)
(-0.2853109 -0.004732069 9.544515e-05)
(-0.2854136 -0.006583796 0.0001888021)
(-0.2837397 -0.00839677 0.0001545563)
(-0.2823008 -0.01021722 7.104626e-05)
(-0.2870818 -0.0005442735 -0.003378043)
(-0.2896128 -0.003377796 -0.002111889)
(-0.2873284 -0.005586526 0.0001164697)
(-0.2874313 -0.007753119 0.0002517264)
(-0.2857708 -0.009963504 0.0001852071)
(-0.2842966 -0.0121243 0.0001004435)
(-0.2894286 -0.0006418571 -0.003426355)
(-0.2920476 -0.003973186 -0.002183945)
(-0.2896879 -0.00651379 7.806927e-05)
(-0.2897933 -0.009057877 0.000214491)
(-0.2881078 -0.01159767 0.0001634517)
(-0.2866177 -0.01410345 8.315337e-05)
(-0.2921303 -0.000739486 -0.003471681)
(-0.2948162 -0.004503033 -0.002200642)
(-0.292411 -0.007418386 7.53738e-05)
(-0.2925166 -0.01032416 0.000222728)
(-0.2908126 -0.01322847 0.0001686902)
(-0.2892929 -0.01609046 8.728089e-05)
(-0.2951978 -0.0008407734 -0.003519851)
(-0.2979629 -0.005079012 -0.002237698)
(-0.2955025 -0.008363297 5.974777e-05)
(-0.295604 -0.01164617 0.0002106768)
(-0.2938708 -0.01491013 0.0001590934)
(-0.2923193 -0.0181328 7.649552e-05)
(-0.2986358 -0.0009445573 -0.003569741)
(-0.3014777 -0.005657609 -0.002266047)
(-0.2989679 -0.009320953 5.480728e-05)
(-0.2990637 -0.01298492 0.0002069071)
(-0.2972957 -0.01662104 0.0001543256)
(-0.2957043 -0.02021064 6.866006e-05)
(-0.3024548 -0.001051544 -0.00362202)
(-0.3053778 -0.006257855 -0.002297769)
(-0.3028165 -0.01030817 5.028862e-05)
(-0.3029035 -0.01436405 0.0002001147)
(-0.3010926 -0.01837809 0.0001467264)
(-0.2994556 -0.02234207 5.910487e-05)
(-0.3066647 -0.001162163 -0.003676406)
(-0.3096701 -0.006874988 -0.002329352)
(-0.3070568 -0.01132278 4.999659e-05)
(-0.307133 -0.01577877 0.0001934482)
(-0.3052708 -0.02018162 0.0001391982)
(-0.3035786 -0.02452936 5.533616e-05)
(-0.3112757 -0.001276516 -0.003731765)
(-0.3143684 -0.007513867 -0.002362878)
(-0.3116996 -0.01237189 5.110653e-05)
(-0.3117612 -0.01723706 0.0001863547)
(-0.3098396 -0.02203897 0.0001311977)
(-0.3080887 -0.02677477 5.653403e-05)
(-0.3163007 -0.001395747 -0.003788871)
(-0.3194853 -0.008175248 -0.002398776)
(-0.3167559 -0.01345747 5.292969e-05)
(-0.3167988 -0.01874412 0.0001799836)
(-0.3148049 -0.02395837 0.0001256213)
(-0.3129977 -0.02909808 7.179065e-05)
(-0.3217518 -0.001520044 -0.003846759)
(-0.3250352 -0.008861631 -0.002436983)
(-0.3222406 -0.01458313 5.458213e-05)
(-0.3222603 -0.02030491 0.0001727895)
(-0.320191 -0.02594242 0.0001244592)
(-0.3183445 -0.03150628 0.0001176344)
(-0.3276466 -0.001649803 -0.003906789)
(-0.3310341 -0.009576705 -0.002478016)
(-0.3281675 -0.01575349 5.645155e-05)
(-0.3281558 -0.02192621 0.0001673455)
(-0.3260039 -0.02799965 0.0001270887)
(-0.3240628 -0.03400927 0.0001570834)
(-0.3340046 -0.001785745 -0.003969685)
(-0.3375007 -0.01032362 -0.002521858)
(-0.3345549 -0.01697459 5.919534e-05)
(-0.334505 -0.02361871 0.0001652845)
(-0.3322705 -0.03015333 0.000139629)
(-0.3302086 -0.03664537 0.0001575497)
(-0.3408403 -0.001928812 -0.004034028)
(-0.3444549 -0.01110635 -0.002569153)
(-0.3414227 -0.01825134 6.255029e-05)
(-0.3413323 -0.02538398 0.000166641)
(-0.3390268 -0.03239757 0.0001814444)
(-0.3368432 -0.03934003 0.0001161801)
(-0.3481796 -0.002079737 -0.004102237)
(-0.3519183 -0.0119288 -0.002620512)
(-0.3487883 -0.01959134 6.548339e-05)
(-0.348649 -0.02723258 0.0001686118)
(-0.3462235 -0.03474347 0.0002246511)
(-0.3439564 -0.04211787 0.0001364339)
(-0.3560464 -0.002239689 -0.00417438)
(-0.3599158 -0.01279694 -0.002675845)
(-0.3566778 -0.02100416 6.6926e-05)
(-0.3564817 -0.02918303 0.0001679582)
(-0.3539086 -0.03721861 0.0002423757)
(-0.3515628 -0.04511839 0.0001712372)
(-0.364466 -0.00241005 -0.004248869)
(-0.3684758 -0.01371338 -0.002733566)
(-0.3651208 -0.0224988 7.124604e-05)
(-0.3648608 -0.03124591 0.000171481)
(-0.362156 -0.03985074 0.0002453823)
(-0.3596796 -0.04830373 0.0001605335)
(-0.3734646 -0.002592164 -0.00432433)
(-0.3776312 -0.0146883 -0.002791074)
(-0.3741528 -0.02408157 8.04975e-05)
(-0.373832 -0.0334271 0.0001988826)
(-0.3709635 -0.04261871 0.0002316648)
(-0.368316 -0.05163664 0.00012787)
(-0.3879611 -0.003132711 -0.003246635)
(-0.3874185 -0.01570656 -0.002851562)
(-0.3837988 -0.02575762 9.288053e-05)
(-0.3833988 -0.03573553 0.000242086)
(-0.3803634 -0.04549904 0.000243687)
(-0.3775256 -0.05515745 6.924321e-05)
(-0.2824306 -0.01444774 -0.001162084)
(-0.2847173 0.007821354 -0.003776409)
(-0.2840703 0.005638887 -0.003418163)
(-0.2819167 0.005045412 -0.002859664)
(-0.2811361 0.004970108 -0.003579531)
(-0.2790067 0.004825814 -0.003335362)
(-0.2832124 -0.005793836 -0.0002761713)
(-0.2828521 -0.003353116 0.0006772718)
(-0.2813697 -0.001632601 5.051663e-05)
(-0.2807568 -0.00164184 0.0001470066)
(-0.2792878 -0.002128492 3.880041e-05)
(-0.2778055 -0.00262153 1.566817e-05)
(-0.2839959 -0.0003255404 0.0002698702)
(-0.2832422 3.508542e-05 0.0016643)
(-0.2836746 -0.00173245 0.0003572966)
(-0.2817092 -0.002518524 0.0005359658)
(-0.2804652 -0.003676374 0.0002109005)
(-0.2785113 -0.004518757 0.0002015041)
(-0.285366 -0.0004286356 0.0003145636)
(-0.2846718 -0.002194433 0.001342624)
(-0.2841073 -0.002955745 0.0002060031)
(-0.2826281 -0.004157269 0.0003504087)
(-0.2812193 -0.005249383 0.0001040195)
(-0.2794483 -0.006421795 9.980251e-05)
(-0.28637 -0.0003001827 0.0003139164)
(-0.2857798 -0.00199878 0.001531971)
(-0.2856882 -0.003724083 0.0002839077)
(-0.2840224 -0.005172351 0.00045391)
(-0.2827178 -0.006778852 0.0001466337)
(-0.28081 -0.008276688 0.0001431814)
(-0.2881878 -0.0004687293 0.0003304768)
(-0.2875565 -0.002891201 0.001441339)
(-0.2873042 -0.004693056 0.0002545239)
(-0.2856928 -0.006579164 0.0003934959)
(-0.2843232 -0.00839404 0.0001169524)
(-0.2824388 -0.0102266 0.0001174026)
(-0.2901575 -0.000523982 0.0003436151)
(-0.2895438 -0.003287591 0.001516998)
(-0.2893618 -0.005553019 0.0002788672)
(-0.2877271 -0.007748422 0.0004247937)
(-0.2863681 -0.009957596 0.0001304396)
(-0.2844387 -0.0121315 0.0001297261)
(-0.2925645 -0.0006328369 0.0003520504)
(-0.2919642 -0.003908835 0.001510028)
(-0.2917457 -0.006491949 0.0002705563)
(-0.2901015 -0.00906301 0.0004085979)
(-0.2887102 -0.01159536 0.0001181639)
(-0.2867593 -0.0141122 0.0001185385)
(-0.2953035 -0.0007248178 0.0003584008)
(-0.2947138 -0.004438762 0.001537958)
(-0.2944976 -0.0074038 0.0002758286)
(-0.2928346 -0.01032769 0.0004140898)
(-0.2914217 -0.01322591 0.0001182232)
(-0.2894353 -0.01609594 0.0001191812)
(-0.298426 -0.0008279441 0.0003638437)
(-0.2978515 -0.005021464 0.001550602)
(-0.2976146 -0.008357005 0.0002719831)
(-0.2959287 -0.01165117 0.0004101056)
(-0.2944834 -0.01490895 0.0001120109)
(-0.2924601 -0.01813705 0.0001145438)
(-0.3019222 -0.0009305925 0.0003695179)
(-0.3013592 -0.005599167 0.00156924)
(-0.3011062 -0.009319724 0.0002707805)
(-0.2993926 -0.01298753 0.0004111975)
(-0.2979126 -0.01661879 0.0001096316)
(-0.2958468 -0.02021396 0.0001132443)
(-0.3058082 -0.001037495 0.0003755315)
(-0.3052565 -0.00619873 0.001586426)
(-0.3049811 -0.01031253 0.0002673427)
(-0.3032346 -0.01436503 0.0004108066)
(-0.301715 -0.01837659 0.0001053336)
(-0.2996021 -0.02234786 0.0001098228)
(-0.3100908 -0.001147271 0.0003819099)
(-0.3095488 -0.006812934 0.00160541)
(-0.3092484 -0.01133081 0.0002636179)
(-0.3074644 -0.01577761 0.0004122537)
(-0.3059012 -0.02018075 0.0001017217)
(-0.303735 -0.02453813 0.000106612)
(-0.3147818 -0.001261133 0.0003891892)
(-0.3142491 -0.00744743 0.001625632)
(-0.3139199 -0.01238151 0.0002596873)
(-0.3120932 -0.01723485 0.0004140779)
(-0.3104813 -0.02204037 9.839333e-05)
(-0.3082562 -0.02679443 0.0001019457)
(-0.3198939 -0.001379568 0.0003977852)
(-0.3193691 -0.008103506 0.001648006)
(-0.3190078 -0.01346749 0.000256326)
(-0.3171329 -0.01874043 0.0004163505)
(-0.3154668 -0.02396143 9.433681e-05)
(-0.313171 -0.02912486 9.14257e-05)
(-0.3254415 -0.001503741 0.0004077452)
(-0.3249235 -0.008784353 0.00167208)
(-0.3245262 -0.01459348 0.0002534898)
(-0.3225979 -0.02030045 0.0004194761)
(-0.3208722 -0.02595073 9.117312e-05)
(-0.3184924 -0.03153523 8.432914e-05)
(-0.3314405 -0.001633422 0.0004187315)
(-0.3309273 -0.009493111 0.001698105)
(-0.3304904 -0.01576455 0.0002509732)
(-0.328502 -0.02192169 0.0004219218)
(-0.3267083 -0.0280162 8.346667e-05)
(-0.3242338 -0.03403107 7.301592e-05)
(-0.3379078 -0.001769417 0.0004308733)
(-0.337399 -0.01023321 0.001726128)
(-0.336918 -0.01698622 0.0002487882)
(-0.3348626 -0.02361204 0.0004246574)
(-0.3329884 -0.03017029 7.372301e-05)
(-0.3304102 -0.03662876 6.77589e-05)
(-0.3448641 -0.00191256 0.0004444218)
(-0.3443589 -0.01100823 0.00175623)
(-0.343829 -0.01826373 0.0002467157)
(-0.3417003 -0.02537816 0.0004282823)
(-0.3397325 -0.03241895 6.700445e-05)
(-0.3370356 -0.03934224 8.71829e-05)
(-0.3523306 -0.002063433 0.0004593158)
(-0.3518286 -0.01182253 0.001788715)
(-0.3512432 -0.01960376 0.0002444183)
(-0.3490332 -0.02722885 0.0004290975)
(-0.3469603 -0.03476988 5.602257e-05)
(-0.3441311 -0.04218125 6.359968e-05)
(-0.3603331 -0.002223321 0.0004743971)
(-0.3598336 -0.01268177 0.001822861)
(-0.3591858 -0.02101505 0.0002414933)
(-0.3568834 -0.02917666 0.0004272238)
(-0.3546935 -0.03723882 4.241144e-05)
(-0.3517205 -0.0451623 2.27999e-05)
(-0.3688992 -0.002393299 0.0004908319)
(-0.3684021 -0.01359182 0.001859025)
(-0.367683 -0.02250762 0.0002390588)
(-0.3652755 -0.03123691 0.0004277866)
(-0.3629551 -0.03984528 3.261698e-05)
(-0.3598266 -0.04830261 1.552745e-05)
(-0.3780614 -0.002575325 0.0005074719)
(-0.3775681 -0.01455838 0.001892468)
(-0.3767683 -0.02408874 0.0002358452)
(-0.3742402 -0.03341537 0.0004289784)
(-0.3717698 -0.04260056 3.938181e-05)
(-0.3684698 -0.05161856 1.254793e-05)
(-0.3878476 -0.002772055 0.000524765)
(-0.3873635 -0.01558543 0.001933092)
(-0.3864729 -0.02577051 0.0002339965)
(-0.3838084 -0.03572861 0.0004316541)
(-0.381168 -0.04552275 3.711994e-05)
(-0.3776777 -0.05513742 1.713947e-05)
(-0.2823085 -0.01428438 -0.0001951316)
(-0.2854536 0.007000544 -0.0005193933)
(-0.2843547 0.00533141 -0.001695649)
(-0.2819154 0.004525058 -0.0006081677)
(-0.2802107 0.004406157 -0.0006004448)
(-0.2780076 0.00418292 -0.0004724527)
(-0.2846473 -0.005597121 -0.0001257519)
(-0.2828483 -0.004220077 -0.000257107)
(-0.2809167 -0.00176018 -6.876908e-05)
(-0.280686 -0.001820806 5.072308e-05)
(-0.2791984 -0.00221132 3.144099e-05)
(-0.2778277 -0.002718172 5.394047e-06)
(-0.2849802 -0.0003267002 5.126658e-05)
(-0.283367 -0.0002294312 1.567006e-05)
(-0.2833663 -0.001699096 0.0001149809)
(-0.2817666 -0.00268478 8.234236e-05)
(-0.280413 -0.003711907 8.0532e-05)
(-0.2785595 -0.004559084 4.604655e-05)
(-0.2856197 -0.0004872192 3.552153e-05)
(-0.284901 -0.002558553 -0.0004046449)
(-0.2835122 -0.003041321 2.578737e-05)
(-0.2826494 -0.004312016 -9.882523e-05)
(-0.2810345 -0.005289412 2.196251e-05)
(-0.2794551 -0.006456563 -1.151385e-05)
(-0.2865228 -0.0002592048 4.20327e-05)
(-0.2860239 -0.002028754 -0.0003076133)
(-0.2851296 -0.003729752 8.752486e-05)
(-0.2840769 -0.005195106 -3.00772e-05)
(-0.2825592 -0.006780346 5.872002e-05)
(-0.2808266 -0.008272763 2.361733e-05)
(-0.2883379 -0.0004883329 4.408169e-05)
(-0.2878512 -0.003013226 -0.0004227369)
(-0.2866881 -0.004745017 4.815435e-05)
(-0.2857329 -0.006634167 -9.610813e-05)
(-0.2841232 -0.008417943 3.117803e-05)
(-0.2824392 -0.01023942 1.118968e-06)
(-0.2903137 -0.0005197636 4.03582e-05)
(-0.2898223 -0.003314322 -0.0003863505)
(-0.2887539 -0.005573986 6.117655e-05)
(-0.2877658 -0.007754282 -7.5517e-05)
(-0.286171 -0.00996404 4.457312e-05)
(-0.2844401 -0.01212922 1.442075e-05)
(-0.2927343 -0.0006390852 4.002086e-05)
(-0.2922586 -0.003958004 -0.0004162508)
(-0.2911257 -0.006521821 4.533634e-05)
(-0.2901338 -0.009082041 -9.575473e-05)
(-0.2885023 -0.01161121 3.289732e-05)
(-0.2867562 -0.01411933 5.63832e-06)
(-0.2954811 -0.000725584 3.974753e-05)
(-0.2950062 -0.004468002 -0.0004141916)
(-0.2938742 -0.007422876 4.550169e-05)
(-0.2928642 -0.01033479 -9.379939e-05)
(-0.2912122 -0.01323557 3.477316e-05)
(-0.289432 -0.01609935 7.286427e-06)
(-0.2986123 -0.0008291001 3.974725e-05)
(-0.2981466 -0.005054049 -0.0004228238)
(-0.2969863 -0.008376318 3.918977e-05)
(-0.2959563 -0.01166145 -0.0001006731)
(-0.294271 -0.01492102 2.983023e-05)
(-0.2924558 -0.01814368 2.794893e-06)
(-0.3021165 -0.0009301237 4.023543e-05)
(-0.3016534 -0.005628749 -0.0004263715)
(-0.3004734 -0.009335138 3.717718e-05)
(-0.2994199 -0.0129964 -0.0001033951)
(-0.2976992 -0.01662944 2.788535e-05)
(-0.2958416 -0.02021945 1.080218e-06)
(-0.3060094 -0.001036212 4.105606e-05)
(-0.3055496 -0.006229339 -0.000431125)
(-0.3043436 -0.01032682 3.447139e-05)
(-0.3032622 -0.01437484 -0.0001069048)
(-0.3014998 -0.01838735 2.526582e-05)
(-0.2995946 -0.0223529 -1.531087e-06)
(-0.3102992 -0.001145144 4.225988e-05)
(-0.3098396 -0.006844231 -0.000435289)
(-0.3086061 -0.01134373 3.289564e-05)
(-0.3074932 -0.0157882 -0.00010987)
(-0.3056833 -0.02019109 2.332037e-05)
(-0.3037238 -0.02454107 -3.167435e-06)
(-0.3149975 -0.00125806 4.384496e-05)
(-0.3145372 -0.007480447 -0.0004394889)
(-0.3132723 -0.01239413 3.158222e-05)
(-0.3121231 -0.01724624 -0.0001127105)
(-0.3102598 -0.02205028 2.150924e-05)
(-0.3082392 -0.02679501 -3.860627e-06)
(-0.3201172 -0.001375536 4.53202e-05)
(-0.3196542 -0.008138699 -0.0004438245)
(-0.3183543 -0.01348026 3.051833e-05)
(-0.3171641 -0.0187527 -0.0001156777)
(-0.3152398 -0.02397055 1.958148e-05)
(-0.3131514 -0.02912229 -3.949035e-06)
(-0.3256727 -0.001498435 4.693822e-05)
(-0.3252052 -0.00882207 -0.0004483497)
(-0.323866 -0.01460658 2.953456e-05)
(-0.3226296 -0.02031393 -0.0001187105)
(-0.3206379 -0.02595905 1.828531e-05)
(-0.318474 -0.03153118 -1.886572e-06)
(-0.3316796 -0.001627072 4.887168e-05)
(-0.3312061 -0.009533628 -0.0004532007)
(-0.3298228 -0.01577807 2.870223e-05)
(-0.3285337 -0.02193642 -0.0001215983)
(-0.3264668 -0.02802401 1.711928e-05)
(-0.3242161 -0.0340315 -7.379617e-07)
(-0.3381562 -0.001762292 5.110675e-05)
(-0.3376748 -0.01027669 -0.0004582657)
(-0.3362423 -0.01700004 2.809646e-05)
(-0.3348938 -0.02362795 -0.0001242751)
(-0.3327432 -0.0301757 1.690754e-05)
(-0.3303941 -0.03663564 -2.481043e-06)
(-0.3451231 -0.001904532 5.385973e-05)
(-0.3446315 -0.01105507 -0.0004635921)
(-0.3431443 -0.01827843 2.769229e-05)
(-0.3417293 -0.02539568 -0.0001267517)
(-0.3394855 -0.03242312 1.882302e-05)
(-0.3370278 -0.03935097 -5.191554e-06)
(-0.3526024 -0.002054885 5.695611e-05)
(-0.3520983 -0.0118729 -0.0004690573)
(-0.3505492 -0.01962024 2.74444e-05)
(-0.3490591 -0.02724973 -0.0001292939)
(-0.3467098 -0.03477643 2.181051e-05)
(-0.3441334 -0.04218948 -8.174014e-06)
(-0.3606184 -0.002214519 6.031836e-05)
(-0.3601011 -0.01273539 -0.0004751238)
(-0.3584824 -0.02103346 2.65226e-05)
(-0.356907 -0.02919985 -0.0001329009)
(-0.3544385 -0.03725054 2.294665e-05)
(-0.35173 -0.04517619 -1.308445e-05)
(-0.3692002 -0.002384232 6.44063e-05)
(-0.3686672 -0.01364838 -0.0004805275)
(-0.3669698 -0.02252815 2.709095e-05)
(-0.3652985 -0.03126164 -0.0001347008)
(-0.3626982 -0.03986261 2.553314e-05)
(-0.3598395 -0.04832241 -1.765887e-05)
(-0.3783788 -0.002565418 6.911914e-05)
(-0.3778295 -0.0146195 -0.000486876)
(-0.3760443 -0.02411282 2.652361e-05)
(-0.374264 -0.03344186 -0.0001388077)
(-0.371514 -0.04262302 2.570198e-05)
(-0.3684843 -0.05164378 -2.974343e-05)
(-0.3881896 -0.002760157 7.453584e-05)
(-0.3876213 -0.01565633 -0.0004888593)
(-0.385738 -0.0258 3.213296e-05)
(-0.383835 -0.03575986 -0.0001344535)
(-0.3809155 -0.04555014 3.721657e-05)
(-0.3776922 -0.05516231 -3.380306e-05)
(-0.2817143 -0.01425458 1.766078e-05)
(-0.2851856 0.004528245 3.371615e-05)
(-0.2840235 0.005318101 -3.859617e-06)
(-0.2812531 0.003805869 -2.736293e-05)
(-0.2795854 0.003691299 -5.948793e-05)
(-0.2774561 0.003523455 -5.840075e-05)
(-0.2850315 -0.005555331 2.739643e-05)
(-0.2827868 -0.003896042 0.0003088389)
(-0.281036 -0.001864933 1.079947e-05)
(-0.2806405 -0.001567776 0.000166025)
(-0.2793172 -0.002176578 3.019828e-05)
(-0.277828 -0.002652654 4.784344e-05)
(-0.2846918 -0.0002914496 8.683752e-05)
(-0.2830149 -5.714717e-05 0.0003214943)
(-0.2835757 -0.001617039 4.008484e-05)
(-0.2817535 -0.002675153 0.0001609137)
(-0.2805167 -0.003692354 4.722941e-05)
(-0.2785753 -0.004542332 6.456007e-05)
(-0.2854487 -0.0004715343 9.720813e-05)
(-0.2848347 -0.002525847 0.0003684184)
(-0.2836903 -0.002997038 7.333933e-05)
(-0.2826556 -0.004276563 0.0001737769)
(-0.2811562 -0.005281446 5.280882e-05)
(-0.279484 -0.006450825 6.490109e-05)
(-0.2862699 -0.0002445018 0.000106499)
(-0.2859041 -0.001966304 0.0004328127)
(-0.2853419 -0.003721057 7.61473e-05)
(-0.2840814 -0.005183005 0.0001958802)
(-0.2827011 -0.006781711 5.667124e-05)
(-0.2808634 -0.00827059 7.301557e-05)
(-0.2880892 -0.0004834953 0.0001079654)
(-0.2877123 -0.003002454 0.0004282669)
(-0.2868932 -0.004732381 8.072329e-05)
(-0.2857392 -0.006634815 0.0001951153)
(-0.2842681 -0.008420481 5.694271e-05)
(-0.2824812 -0.01024228 7.33668e-05)
(-0.2900506 -0.0005145849 0.0001083255)
(-0.2896754 -0.003291157 0.0004472393)
(-0.2889667 -0.0055668 8.543072e-05)
(-0.2877741 -0.007752513 0.000204574)
(-0.2863233 -0.00996408 6.031855e-05)
(-0.2844857 -0.01213067 7.68289e-05)
(-0.29247 -0.0006386128 0.0001085157)
(-0.2921094 -0.003948095 0.0004494518)
(-0.2913402 -0.00651711 8.591939e-05)
(-0.2901442 -0.00908543 0.0002040787)
(-0.2886557 -0.01161249 5.903949e-05)
(-0.286802 -0.01412235 7.586081e-05)
(-0.2952123 -0.0007251196 0.0001091443)
(-0.2948532 -0.004455307 0.000457118)
(-0.2940927 -0.007419126 8.781357e-05)
(-0.292876 -0.0103364 0.0002069256)
(-0.2913681 -0.01323541 5.959384e-05)
(-0.2894785 -0.01610093 7.705046e-05)
(-0.2983407 -0.0008294013 0.0001096144)
(-0.2979922 -0.005043912 0.0004614885)
(-0.2972076 -0.008374436 8.787781e-05)
(-0.2959688 -0.01166417 0.0002076542)
(-0.2944279 -0.01492159 5.890886e-05)
(-0.2925023 -0.01814529 7.681949e-05)
(-0.3018417 -0.000930332 0.000110075)
(-0.3014975 -0.005617804 0.0004668066)
(-0.3006977 -0.009333933 8.83096e-05)
(-0.2994325 -0.01299864 0.0002097124)
(-0.2978574 -0.01662986 5.922234e-05)
(-0.2958886 -0.02022087 7.697965e-05)
(-0.3057301 -0.001036493 0.000110419)
(-0.3053925 -0.006218226 0.0004717718)
(-0.3045708 -0.01032663 8.806632e-05)
(-0.3032751 -0.01437678 0.0002109725)
(-0.3016596 -0.018388 5.892528e-05)
(-0.2996421 -0.02235462 7.699027e-05)
(-0.310015 -0.001145518 0.0001110129)
(-0.3096816 -0.006832258 0.0004772055)
(-0.3088365 -0.01134404 8.787572e-05)
(-0.307506 -0.01578992 0.0002126169)
(-0.3058451 -0.0201921 5.855724e-05)
(-0.3037722 -0.02454331 7.728185e-05)
(-0.3147081 -0.001258594 0.0001118016)
(-0.3143782 -0.007467425 0.0004830068)
(-0.3135059 -0.01239479 8.759305e-05)
(-0.3121358 -0.01724759 0.000214573)
(-0.3104237 -0.02205145 5.847095e-05)
(-0.3082889 -0.026798 7.723488e-05)
(-0.3198219 -0.001376203 0.0001129032)
(-0.3194942 -0.008124472 0.0004892672)
(-0.3185914 -0.01348103 8.739288e-05)
(-0.3171767 -0.0187538 0.0002166181)
(-0.3154071 -0.02397178 5.804372e-05)
(-0.3132023 -0.02912553 7.647416e-05)
(-0.3253711 -0.001498897 0.0001142584)
(-0.325044 -0.008806532 0.0004960788)
(-0.3241069 -0.01460738 8.737124e-05)
(-0.3226422 -0.02031455 0.000219308)
(-0.3208081 -0.02596084 5.834279e-05)
(-0.3185246 -0.03153487 7.629145e-05)
(-0.3313714 -0.001627309 0.0001158287)
(-0.3310434 -0.009516573 0.0005033995)
(-0.3300679 -0.01577877 8.726139e-05)
(-0.3285467 -0.02193671 0.0002217297)
(-0.3266408 -0.028026 5.769397e-05)
(-0.3242689 -0.03403457 7.539041e-05)
(-0.3378404 -0.001762376 0.0001176066)
(-0.3375104 -0.01025806 0.0005112828)
(-0.3364917 -0.01700042 8.727702e-05)
(-0.3349075 -0.023627 0.0002240644)
(-0.3329207 -0.03017717 5.683952e-05)
(-0.3304498 -0.0366371 7.523196e-05)
(-0.3447974 -0.001904573 0.0001195851)
(-0.3444651 -0.0110344 0.0005196238)
(-0.3433981 -0.01827794 8.710733e-05)
(-0.341743 -0.02539381 0.0002265829)
(-0.3396658 -0.03242321 5.597631e-05)
(-0.337084 -0.03935168 7.605572e-05)
(-0.3522658 -0.002054857 0.0001218099)
(-0.3519292 -0.01185028 0.0005284346)
(-0.350808 -0.0196187 8.690553e-05)
(-0.3490731 -0.02724649 0.0002288436)
(-0.3468944 -0.03477573 5.43644e-05)
(-0.3441902 -0.0421939 7.426096e-05)
(-0.3602721 -0.002214379 0.0001242063)
(-0.3599289 -0.01270997 0.0005372068)
(-0.3587468 -0.02102922 8.587136e-05)
(-0.3569214 -0.02919413 0.0002298741)
(-0.3546288 -0.03724494 5.1452e-05)
(-0.3517869 -0.04517641 7.112957e-05)
(-0.3688434 -0.002383952 0.0001272887)
(-0.3684897 -0.01362155 0.0005462887)
(-0.3672386 -0.02252207 8.471854e-05)
(-0.3653109 -0.0312547 0.0002310709)
(-0.3628927 -0.03985149 4.813065e-05)
(-0.3598989 -0.04832511 7.031408e-05)
(-0.3780121 -0.002565463 0.0001306374)
(-0.3776467 -0.01458925 0.0005540322)
(-0.3763198 -0.02410146 8.175408e-05)
(-0.3742741 -0.03342952 0.000229906)
(-0.371716 -0.04259854 4.348467e-05)
(-0.3685465 -0.05163975 6.895076e-05)
(-0.3878104 -0.00275941 0.0001350015)
(-0.3874262 -0.01562566 0.0005632814)
(-0.3860156 -0.02578841 7.830626e-05)
(-0.383836 -0.03575564 0.0002286997)
(-0.3811223 -0.04552353 3.385007e-05)
(-0.3777665 -0.05517898 6.625374e-05)
(-0.2816521 -0.01445474 -0.0001347958)
(-0.28599 0.007273633 -0.0003700469)
(-0.2830231 0.00406344 0.000216574)
(-0.2811198 0.003520324 -6.592758e-05)
(-0.2790323 0.003282091 -4.124684e-06)
(-0.2770977 0.003234618 -4.801866e-06)
(-0.2852381 -0.005583405 5.28158e-06)
(-0.2827618 -0.003888905 -0.0002921992)
(-0.2810458 -0.001827173 8.95225e-06)
(-0.2806571 -0.001556995 -0.0001599023)
(-0.2793118 -0.002181591 -2.534054e-05)
(-0.2778241 -0.002650194 -6.287052e-05)
(-0.284786 -0.0002992228 4.520942e-06)
(-0.2830178 -6.216079e-05 -0.0003209128)
(-0.2835765 -0.00162751 -4.352903e-05)
(-0.2817523 -0.002670639 -0.0001621448)
(-0.2805159 -0.003687122 -4.844059e-05)
(-0.2785741 -0.004542235 -6.566408e-05)
(-0.285546 -0.000462825 7.117393e-06)
(-0.2848344 -0.002525794 -0.0003663918)
(-0.2836914 -0.002994621 -7.196165e-05)
(-0.2826562 -0.004275997 -0.0001732433)
(-0.2811554 -0.005280287 -5.182852e-05)
(-0.2794837 -0.00645068 -6.568665e-05)
(-0.2863359 -0.0002498532 4.522764e-06)
(-0.2859044 -0.001966293 -0.0004324628)
(-0.2853422 -0.003721338 -7.627788e-05)
(-0.2840813 -0.005182028 -0.0001957715)
(-0.2827009 -0.006781331 -5.640584e-05)
(-0.2808632 -0.008270251 -7.306072e-05)
(-0.2881523 -0.0004757189 2.810579e-06)
(-0.2877125 -0.003002419 -0.0004279828)
(-0.2868933 -0.004732262 -8.055657e-05)
(-0.2857392 -0.006634626 -0.0001947747)
(-0.284268 -0.008420312 -5.646495e-05)
(-0.282481 -0.01024217 -7.311299e-05)
(-0.2900989 -0.0005164067 3.330914e-06)
(-0.2896755 -0.003291097 -0.000447135)
(-0.2889668 -0.005566731 -8.535827e-05)
(-0.2877741 -0.007752304 -0.0002042523)
(-0.2863233 -0.009963973 -5.992028e-05)
(-0.2844857 -0.01213057 -7.651577e-05)
(-0.2925186 -0.0006377328 3.053287e-06)
(-0.2921095 -0.003948061 -0.0004492829)
(-0.2913403 -0.006517058 -8.578582e-05)
(-0.2901442 -0.009085302 -0.0002037075)
(-0.2886557 -0.01161243 -5.85723e-05)
(-0.2868019 -0.01412224 -7.550647e-05)
(-0.2952577 -0.0007258318 3.328703e-06)
(-0.2948532 -0.004455265 -0.0004570021)
(-0.2940927 -0.007419043 -8.765919e-05)
(-0.292876 -0.01033631 -0.0002064979)
(-0.291368 -0.01323531 -5.914829e-05)
(-0.2894784 -0.0161009 -7.664638e-05)
(-0.2983851 -0.0008299335 3.56912e-06)