/*--------------------------------*- C++ -*----------------------------------*\
  =========                 |
  \\      /  F ield         | OpenFOAM: The Open Source CFD Toolbox
   \\    /   O peration     | Website:  https://openfoam.org
    \\  /    A nd           | Version:  7
     \\/     M anipulation  |
\*---------------------------------------------------------------------------*/
FoamFile
{
    version     2.0;
    format      ascii;
    class       volVectorField;
    location    "0.1";
    object      C;
}
// * * * * * * * * * * * * * * * * * * * * * * * * * * * * * * * * * * * * * //

dimensions      [0 1 0 0 0 0 0];

internalField   nonuniform List<vector> 
89125
(
(0.6507243 0.2568627 0.04458644)
(0.8498363 0.2550541 0.04242501)
(1.04994 0.254809 0.04206553)
(1.249958 0.2547805 0.04201323)
(1.44996 0.2547757 0.04200689)
(1.649961 0.2547746 0.04200589)
(1.849961 0.2547743 0.04200556)
(2.049961 0.2547742 0.04200544)
(0.5009685 0.4998248 0.09658318)
(0.7003247 0.4992622 0.09351285)
(0.8998527 0.4980079 0.09207291)
(1.099913 0.4975524 0.09168218)
(1.299965 0.497421 0.09157641)
(1.499986 0.4973842 0.09154382)
(1.699994 0.4973737 0.09153328)
(1.899998 0.497371 0.09153043)
(2.1 0.4973712 0.09153193)
(0.2334727 0.6250176 0.02087564)
(0.5022278 0.6996846 0.09470806)
(0.7004929 0.6992538 0.0909884)
(0.8998283 0.6987489 0.08972929)
(1.099879 0.6984244 0.08935601)
(1.299945 0.6982954 0.08923975)
(1.499975 0.698252 0.0891979)
(1.699989 0.6982387 0.08918279)
(1.899996 0.6982353 0.08917888)
(2.099999 0.6982351 0.08918182)
(0.233528 0.8249665 0.02086627)
(0.5022662 0.8997073 0.09407197)
(0.7005226 0.8993783 0.09013567)
(0.8997714 0.8991145 0.08876862)
(1.099844 0.8989619 0.08837373)
(1.299927 0.8988935 0.08824665)
(1.499966 0.898869 0.0881988)
(1.699984 0.8988615 0.08818079)
(1.899993 0.8988595 0.08817628)
(2.099998 0.8988588 0.0881804)
(0.2335272 1.024968 0.02086713)
(0.5021759 1.099909 0.09392678)
(0.7004612 1.099806 0.08991962)
(0.8997319 1.099727 0.08851306)
(1.09982 1.099684 0.08809921)
(1.299914 1.099668 0.08796391)
(1.499959 1.099665 0.08791196)
(1.699981 1.099665 0.08789212)
(1.899992 1.099666 0.08788721)
(2.099997 1.099664 0.08789209)
(0.2335271 1.224969 0.02086808)
(0.5021436 1.300053 0.09390564)
(0.7004332 1.300099 0.0898924)
(0.8997154 1.300139 0.08848251)
(1.099811 1.300172 0.0880668)
(1.299909 1.300197 0.08793034)
(1.499957 1.300212 0.08787782)
(1.69998 1.300219 0.08785762)
(1.899991 1.300222 0.08785265)
(2.099997 1.300219 0.08785789)
(0.2335273 1.424969 0.02086816)
(0.5021621 1.500207 0.09395237)
(0.7004511 1.500397 0.08998209)
(0.8997281 1.500542 0.08860038)
(1.099819 1.500641 0.08820078)
(1.299913 1.500698 0.08807213)
(1.499959 1.500727 0.08802292)
(1.699981 1.500738 0.08800392)
(1.899992 1.500742 0.08799933)
(2.099998 1.500739 0.0880044)
(0.2335277 1.624969 0.0208677)
(0.5022304 1.700461 0.09415947)
(0.7005065 1.700851 0.09034572)
(0.8997703 1.701116 0.0890537)
(1.099845 1.701285 0.08869802)
(1.299926 1.701373 0.08858787)
(1.499964 1.701403 0.08854511)
(1.699983 1.701406 0.08852764)
(1.899995 1.701409 0.08852391)
(2.099999 1.70141 0.08852909)
(0.2335276 1.82497 0.02086662)
(0.5022314 1.900684 0.09499948)
(0.7004823 1.901158 0.09168902)
(0.8998453 1.901448 0.09065845)
(1.099893 1.901696 0.09038949)
(1.299951 1.901808 0.09030753)
(1.499972 1.901809 0.09027097)
(1.699982 1.901765 0.09025227)
(1.899997 1.901772 0.09024717)
(2.099995 1.901785 0.09025494)
(0.2335205 2.024961 0.02086874)
(0.5015293 2.101537 0.09778589)
(0.700263 2.101754 0.09612824)
(0.8999613 2.102034 0.09550674)
(1.099962 2.102438 0.09538426)
(1.299978 2.102544 0.0953448)
(1.500016 2.102443 0.09526372)
(1.699946 2.102069 0.09528894)
(1.899964 2.102229 0.09520048)
(2.099967 2.102239 0.09526267)
(0.2332629 2.224585 0.02092067)
(0.4519004 2.249751 0.04677235)
(0.6491378 2.246621 0.04521597)
(0.8490713 2.245769 0.04487301)
(1.049012 2.246941 0.04509607)
(1.249003 2.247056 0.04511928)
(1.449005 2.246946 0.04508383)
(1.649862 2.245931 0.04434721)
(1.847984 2.245897 0.04430731)
(2.048948 2.24645 0.04496521)
(0.4121595 2.416931 0.01025936)
(0.6121919 2.416909 0.01023722)
(0.8257216 2.413771 0.02136872)
(1.012192 2.416924 0.01025113)
(1.212192 2.416938 0.01025756)
(1.412193 2.416937 0.01025772)
(1.611957 2.415843 0.00931933)
(1.82334 2.412169 0.02053058)
(2.012192 2.416894 0.01023053)
(0.4485563 2.649023 0.04718866)
(0.6498361 2.648838 0.04638902)
(0.8498802 2.648331 0.046189)
(1.050005 2.649277 0.04650462)
(1.250002 2.649339 0.04652174)
(1.450004 2.649312 0.04653089)
(1.65 2.649306 0.04652939)
(1.849995 2.649271 0.04651834)
(2.05007 2.648631 0.04629858)
(0.4990738 2.899146 0.09721206)
(0.6997015 2.898166 0.09481191)
(0.8997446 2.897476 0.09408207)
(1.0999 2.897162 0.09392247)
(1.299967 2.897006 0.09386726)
(1.49999 2.896927 0.0938417)
(1.699998 2.896883 0.09382989)
(1.900004 2.896814 0.09381728)
(2.100011 2.896663 0.0937894)
(0.4995972 3.099092 0.09563677)
(0.6996164 3.098047 0.09172878)
(0.8995409 3.097326 0.09058699)
(1.099805 3.096869 0.09029542)
(1.299931 3.096631 0.09020798)
(1.499976 3.096514 0.09017424)
(1.699992 3.096454 0.09016022)
(1.899999 3.096414 0.09015435)
(2.100003 3.096382 0.09015274)
(0.4995526 3.299348 0.0949635)
(0.6995242 3.298623 0.09057315)
(0.8994033 3.29808 0.08915527)
(1.099732 3.297728 0.08877019)
(1.2999 3.297523 0.08865156)
(1.499962 3.297413 0.08860708)
(1.699986 3.297356 0.08858982)
(1.899995 3.297329 0.08858484)
(2.1 3.297325 0.08858783)
(0.4994669 3.499656 0.09478214)
(0.6994276 3.499256 0.09022856)
(0.8993316 3.498928 0.08870945)
(1.099691 3.498692 0.08827406)
(1.299879 3.498541 0.0881345)
(1.499952 3.498452 0.08808163)
(1.69998 3.498405 0.08806131)
(1.899992 3.498386 0.08805578)
(2.099998 3.498389 0.08805977)
(0.4994288 3.699826 0.09473115)
(0.6993822 3.699614 0.0901231)
(0.8992979 3.699428 0.08856538)
(1.09967 3.699281 0.08810724)
(1.299867 3.69918 0.08795625)
(1.499946 3.699116 0.08789805)
(1.699977 3.699081 0.08787576)
(1.89999 3.699067 0.08786971)
(2.099996 3.69907 0.08787412)
(0.4994171 3.899912 0.09471977)
(0.6993666 3.899798 0.09009093)
(0.899285 3.899694 0.08851804)
(1.099662 3.899608 0.08805022)
(1.299862 3.899544 0.08789394)
(1.499943 3.899502 0.08783324)
(1.699975 3.899477 0.08780983)
(1.899989 3.899467 0.08780333)
(2.099996 3.899469 0.08780782)
(0.4994159 4.099954 0.09472053)
(0.6993614 4.099894 0.09008098)
(0.8992798 4.099837 0.08850123)
(1.099657 4.099787 0.08802874)
(1.299859 4.099749 0.08786954)
(1.499941 4.099722 0.08780736)
(1.699974 4.099707 0.08778311)
(1.899988 4.0997 0.08777641)
(2.099995 4.099701 0.08778102)
(0.4523616 0.2585995 0.2484469)
(0.7015494 0.307327 0.2932943)
(0.9003654 0.3053079 0.2913424)
(1.099959 0.3046851 0.2906772)
(1.299966 0.3045501 0.2904463)
(1.499986 0.3045187 0.2903771)
(1.699994 0.3045092 0.2903581)
(1.899997 0.3045064 0.2903536)
(2.099999 0.3045064 0.2903544)
(0.2587484 0.4522681 0.2491001)
(0.5002696 0.4996882 0.2927956)
(0.6998544 0.4972091 0.2882091)
(0.8997624 0.4950303 0.2858781)
(1.099839 0.49421 0.2850001)
(1.299913 0.493946 0.2846886)
(1.499956 0.4938613 0.2845777)
(1.699978 0.4938336 0.2845389)
(1.899989 0.4938253 0.2845289)
(2.099995 0.4938249 0.2845339)
(0.3084903 0.7014279 0.2971862)
(0.4988969 0.6994386 0.2900662)
(0.6990876 0.6982213 0.2848489)
(0.8994538 0.6971252 0.2823876)
(1.099693 0.6965437 0.2814202)
(1.299835 0.696296 0.2810406)
(1.499914 0.6962018 0.2808898)
(1.699956 0.6961684 0.2808322)
(1.899978 0.6961578 0.2808171)
(2.09999 0.6961564 0.2808282)
(0.3070653 0.9003853 0.2974343)
(0.4975046 0.899677 0.2890315)
(0.6983928 0.8992013 0.2832789)
(0.8991295 0.8987465 0.2805001)
(1.099534 0.8984712 0.2793961)
(1.299754 0.8983422 0.2789517)
(1.499872 0.898292 0.2787692)
(1.699933 0.8982754 0.2786973)
(1.899966 0.8982698 0.2786787)
(2.099984 0.8982663 0.2786953)
(0.3065833 1.100011 0.2974644)
(0.4969602 1.099977 0.288704)
(0.6980206 1.099935 0.2827504)
(0.8989209 1.099888 0.2798219)
(1.099423 1.09987 0.2786349)
(1.299696 1.099877 0.2781489)
(1.499841 1.099892 0.2779466)
(1.699917 1.099905 0.2778662)
(1.899958 1.099908 0.2778456)
(2.09998 1.099902 0.2778657)
(0.3064917 1.300065 0.2974368)
(0.4968108 1.300307 0.2886432)
(0.6978933 1.300632 0.2826706)
(0.8988418 1.300924 0.2797255)
(1.099379 1.301141 0.2785278)
(1.299673 1.301285 0.2780359)
(1.499829 1.301372 0.2778305)
(1.699912 1.301416 0.2777488)
(1.899955 1.301431 0.2777282)
(2.099979 1.301419 0.2777493)
(0.3065087 1.500193 0.2974632)
(0.4968544 1.500801 0.288773)
(0.6979451 1.501609 0.282941)
(0.8988828 1.502301 0.2801067)
(1.099406 1.502772 0.2789752)
(1.29969 1.503054 0.2785175)
(1.499839 1.503206 0.2783276)
(1.699917 1.503277 0.278252)
(1.899959 1.503299 0.2782334)
(2.099981 1.503283 0.2782539)
(0.3066476 1.700407 0.2975723)
(0.4971193 1.701766 0.2892431)
(0.6981957 1.703418 0.2838463)
(0.8990505 1.704681 0.2813195)
(1.099507 1.705439 0.2803526)
(1.299746 1.705843 0.2799725)
(1.49987 1.706035 0.2798151)
(1.699934 1.706115 0.2797511)
(1.899968 1.706139 0.2797366)
(2.099986 1.706121 0.2797561)
(0.3072368 1.900501 0.29774)
(0.4978858 1.903985 0.2906401)
(0.698742 1.90728 0.2863924)
(0.8993546 1.909312 0.2845292)
(1.099673 1.910315 0.2838516)
(1.299835 1.910772 0.2835909)
(1.499916 1.910949 0.283474)
(1.699959 1.911002 0.2834174)
(1.899981 1.911019 0.2834092)
(2.099993 1.911003 0.2834323)
(0.3089323 2.100583 0.297902)
(0.4995531 2.110427 0.2944)
(0.6994721 2.116173 0.2922914)
(0.8997142 2.118396 0.2913523)
(1.099865 2.119268 0.2910458)
(1.299937 2.119585 0.290922)
(1.499974 2.119656 0.2908249)
(1.699994 2.119654 0.2907213)
(1.899983 2.119645 0.2907389)
(2.099997 2.119615 0.2907892)
(0.2578805 2.246825 0.2501181)
(0.4503042 2.262161 0.2479474)
(0.6499095 2.269988 0.2475524)
(0.8499232 2.271408 0.2472724)
(1.049933 2.271991 0.2474037)
(1.249926 2.27214 0.247438)
(1.449923 2.272111 0.247375)
(1.649962 2.272035 0.2470554)
(1.849872 2.272017 0.2470485)
(2.049915 2.271937 0.2472394)
(0.2302693 2.625716 0.2253236)
(0.5082489 2.674273 0.3059852)
(0.7062337 2.657385 0.3100342)
(0.9007138 2.651749 0.3123449)
(1.100056 2.650393 0.3125467)
(1.300016 2.650032 0.3124408)
(1.500019 2.649911 0.3123752)
(1.700015 2.649859 0.3123522)
(1.900015 2.649811 0.3123209)
(2.100025 2.649724 0.3121944)
(0.2586232 2.850344 0.2516492)
(0.5015991 2.886593 0.2956319)
(0.7003461 2.874389 0.2933608)
(0.900043 2.868674 0.2925754)
(1.099958 2.866203 0.2923276)
(1.299969 2.865225 0.2921802)
(1.499989 2.864826 0.2920979)
(1.7 2.864654 0.2920601)
(1.900007 2.864562 0.2920349)
(2.100012 2.864502 0.2920024)
(0.2581829 3.04985 0.252175)
(0.4997594 3.093845 0.2922287)
(0.6992308 3.087334 0.2871535)
(0.8995259 3.082914 0.2851601)
(1.099744 3.080534 0.2844679)
(1.299871 3.079366 0.2841957)
(1.499938 3.078811 0.2840775)
(1.699972 3.078556 0.2840268)
(1.89999 3.078454 0.2840084)
(2.1 3.078454 0.2840113)
(0.2581004 3.249903 0.2521726)
(0.4989875 3.29704 0.2909192)
(0.6985035 3.293685 0.2845628)
(0.8991036 3.29097 0.2817923)
(1.09953 3.289218 0.2807639)
(1.299765 3.288216 0.2803641)
(1.499884 3.287682 0.2801995)
(1.699943 3.287419 0.2801327)
(1.899973 3.28732 0.2801134)
(2.099989 3.287342 0.2801263)
(0.2580834 3.44995 0.2521587)
(0.4986885 3.498502 0.2904632)
(0.6981531 3.496727 0.2836144)
(0.8988547 3.495141 0.2804816)
(1.099384 3.493986 0.2792601)
(1.299686 3.493246 0.2787725)
(1.499842 3.492815 0.2785711)
(1.69992 3.492589 0.2784905)
(1.89996 3.492502 0.2784683)
(2.09998 3.492527 0.278485)
(0.2580784 3.649972 0.2521556)
(0.4985728 3.69922 0.2903091)
(0.6980011 3.698265 0.2832759)
(0.8987312 3.697358 0.2799904)
(1.099303 3.696642 0.2786751)
(1.299638 3.696144 0.2781389)
(1.499814 3.695833 0.2779155)
(1.699904 3.695661 0.2778257)
(1.899951 3.695593 0.2778012)
(2.099975 3.695611 0.2778195)
(0.258078 3.849983 0.2521579)
(0.4985336 3.899589 0.2902708)
(0.6979425 3.899073 0.2831687)
(0.8986785 3.898563 0.2798236)
(1.099265 3.898137 0.2784691)
(1.299613 3.897824 0.2779105)
(1.499799 3.897617 0.2776762)
(1.699895 3.897497 0.2775817)
(1.899945 3.897448 0.2775559)
(2.099972 3.897459 0.2775745)
(0.2580823 4.049989 0.2521653)
(0.4985239 4.099783 0.2902692)
(0.6979196 4.099507 0.2831349)
(0.8986547 4.099224 0.2797636)
(1.099245 4.098979 0.2783905)
(1.299598 4.098791 0.2778206)
(1.499789 4.098662 0.2775799)
(1.699889 4.098585 0.2774825)
(1.899941 4.098552 0.2774557)
(2.09997 4.098558 0.277475)
(0.4523126 0.2584078 0.4494469)
(0.7024661 0.3065673 0.4972148)
(0.9007461 0.303933 0.4958059)
(1.099981 0.3031005 0.4952161)
(1.299954 0.302898 0.4949542)
(1.499978 0.3028477 0.4948608)
(1.69999 0.3028325 0.494832)
(1.899995 0.3028279 0.4948247)
(2.099998 0.3028274 0.4948259)
(0.2584272 0.4522922 0.4497357)
(0.4998895 0.4996935 0.4970271)
(0.6996966 0.4967647 0.4941746)
(0.8996581 0.4939588 0.4922442)
(1.099756 0.4927775 0.4913125)
(1.299855 0.4923676 0.4909125)
(1.499921 0.4922296 0.4907522)
(1.699958 0.4921824 0.4906924)
(1.899978 0.4921672 0.490676)
(2.099989 0.4921652 0.4906839)
(0.3068242 0.7024085 0.4988216)
(0.4972912 0.6995464 0.4951966)
(0.6983246 0.6979923 0.4914979)
(0.8990155 0.6964301 0.4890348)
(1.099441 0.695542 0.4878213)
(1.299688 0.6951503 0.487276)
(1.49983 0.6949955 0.4870401)
(1.699908 0.6949384 0.4869453)
(1.899951 0.6949188 0.4869197)
(2.099974 0.6949146 0.4869386)
(0.304347 0.9007583 0.4985779)
(0.4947604 0.8997329 0.4942042)
(0.6969348 0.8991584 0.4898816)
(0.898294 0.8985077 0.4868689)
(1.099082 0.8980795 0.4853356)
(1.299503 0.8978806 0.4846431)
(1.499732 0.8978047 0.4843381)
(1.699856 0.8977802 0.484213)
(1.899923 0.8977708 0.4841801)
(2.099959 0.8977624 0.4842094)
(0.3035778 1.100063 0.4985392)
(0.4937233 1.100119 0.4938129)
(0.6961548 1.100233 0.4892077)
(0.8978098 1.1003 0.4859018)
(1.098819 1.100364 0.4841597)
(1.299365 1.100435 0.4833658)
(1.499659 1.100496 0.4830149)
(1.699818 1.100535 0.4828706)
(1.899902 1.100547 0.4828332)
(2.099948 1.100531 0.4828693)
(0.3034159 1.30014 0.4985031)
(0.4934312 1.300673 0.4937293)
(0.6958857 1.301472 0.4890908)
(0.8976284 1.302232 0.4857465)
(1.098715 1.302804 0.4839703)
(1.299309 1.303178 0.4831571)
(1.499631 1.303399 0.4827978)
(1.699803 1.303513 0.4826503)
(1.899895 1.30355 0.4826128)
(2.099944 1.303522 0.4826513)
(0.3034413 1.500366 0.4985359)
(0.4935096 1.501576 0.4938819)
(0.6959877 1.503372 0.4894379)
(0.8977188 1.505024 0.4862835)
(1.098777 1.506185 0.4846387)
(1.299348 1.506879 0.4838962)
(1.499654 1.507254 0.4835697)
(1.699817 1.507435 0.483436)
(1.899903 1.507491 0.483403)
(2.099949 1.507452 0.4834398)
(0.3036721 1.70073 0.4986604)
(0.4940056 1.703311 0.494378)
(0.6965079 1.706863 0.4904885)
(0.8980976 1.709833 0.4878518)
(1.099004 1.711667 0.4865352)
(1.299479 1.712635 0.4859507)
(1.499727 1.713113 0.4856943)
(1.699858 1.713327 0.4855888)
(1.899926 1.713391 0.4855639)
(2.099962 1.713344 0.4855963)
(0.3045959 1.900827 0.4988567)
(0.4954278 1.907049 0.4955406)
(0.6975797 1.913705 0.4927731)
(0.898736 1.918233 0.4910059)
(1.099363 1.920499 0.4901631)
(1.299678 1.921536 0.4897939)
(1.499837 1.921994 0.4896265)
(1.699917 1.92218 0.4895531)
(1.899958 1.922232 0.4895385)
(2.099981 1.92219 0.4895664)
(0.3075497 2.100756 0.4993138)
(0.4983159 2.115963 0.4976691)
(0.6989166 2.12561 0.496353)
(0.8994733 2.130517 0.4956301)
(1.09975 2.132439 0.4953158)
(1.299888 2.133169 0.4951659)
(1.499952 2.133445 0.4950805)
(1.699978 2.133547 0.4950285)
(1.899986 2.133569 0.495026)
(2.099997 2.13354 0.4950513)
(0.2564764 2.244063 0.4488864)
(0.4501945 2.269943 0.4493884)
(0.7013739 2.329066 0.5008888)
(0.9004501 2.331768 0.5018336)
(1.100064 2.332692 0.502034)
(1.300037 2.332945 0.5020293)
(1.50003 2.333016 0.5019976)
(1.700015 2.333035 0.5019623)
(1.900003 2.333038 0.501969)
(2.100005 2.333029 0.5019837)
(0.2302854 2.626034 0.4250296)
(0.5136421 2.656899 0.5059355)
(0.7150393 2.626256 0.5140723)
(0.9026258 2.615486 0.5153505)
(1.100315 2.612154 0.515717)
(1.300076 2.611235 0.5156326)
(1.50006 2.61096 0.5155408)
(1.700043 2.610861 0.5155095)
(1.900028 2.610826 0.5155062)
(2.100018 2.610826 0.5155076)
(0.3086799 2.898185 0.5010839)
(0.5020247 2.874825 0.498936)
(0.7011671 2.850544 0.4978945)
(0.9004554 2.837625 0.4973332)
(1.10007 2.831996 0.4970869)
(1.299992 2.829806 0.4968926)
(1.499998 2.828944 0.4967731)
(1.700007 2.828597 0.4967192)
(1.900011 2.828477 0.4967025)
(2.100015 2.828494 0.4967066)
(0.3070111 3.098068 0.5019006)
(0.498361 3.087549 0.4970312)
(0.6992706 3.073644 0.4939148)
(0.899513 3.063165 0.4921149)
(1.099693 3.057503 0.4912528)
(1.299813 3.054774 0.4908581)
(1.499898 3.053504 0.4906716)
(1.699949 3.052938 0.4905898)
(1.899978 3.052741 0.4905652)
(2.099995 3.052791 0.4905803)
(0.3062646 3.298766 0.5019304)
(0.4967769 3.293804 0.4959729)
(0.697813 3.286458 0.4914535)
(0.8986866 3.279882 0.4885963)
(1.099263 3.275536 0.4872093)
(1.299595 3.273103 0.4865911)
(1.499781 3.271828 0.4863173)
(1.699884 3.271212 0.4862026)
(1.89994 3.27099 0.4861706)
(2.09997 3.271057 0.4861954)
(0.3060443 3.499343 0.5018518)
(0.496166 3.496799 0.4954977)
(0.6970757 3.492882 0.4903251)
(0.8981394 3.489064 0.4868589)
(1.098944 3.486208 0.4850959)
(1.299418 3.484396 0.4843035)
(1.499684 3.483353 0.4839547)
(1.69983 3.482813 0.4838102)
(1.899908 3.48261 0.4837704)
(2.099949 3.48267 0.4838011)
(0.305971 3.699657 0.5018145)
(0.4959281 3.698309 0.4953134)
(0.6967548 3.696183 0.4898816)
(0.8978632 3.693999 0.486155)
(1.09876 3.692235 0.4842087)
(1.299307 3.691016 0.4833184)
(1.49962 3.69026 0.4829243)
(1.699792 3.689846 0.4827613)
(1.899886 3.689683 0.482716)
(2.099935 3.689726 0.4827495)
(0.3059445 3.89982 0.5018074)
(0.4958395 3.8991 0.4952617)
(0.696626 3.897943 0.4897366)
(0.8977419 3.89671 0.4859108)
(1.098671 3.895663 0.4838892)
(1.299249 3.894897 0.4829552)
(1.499583 3.894394 0.4825393)
(1.69977 3.894106 0.4823668)
(1.899872 3.893987 0.4823189)
(2.099928 3.894013 0.4823538)
(0.3059345 4.099905 0.5018101)
(0.4958055 4.099523 0.4952523)
(0.6965715 4.098899 0.4896892)
(0.8976852 4.098217 0.4858216)
(1.098624 4.097616 0.4837663)
(1.299214 4.097158 0.4828105)
(1.499559 4.096845 0.4823827)
(1.699754 4.096659 0.4822049)
(1.899862 4.096579 0.4821557)
(2.099922 4.096593 0.4821919)
(0.4523147 0.2583435 0.6498351)
(0.7025967 0.3061646 0.6987533)
(0.9008685 0.3033671 0.6979418)
(1.099977 0.3024111 0.6975481)
(1.299941 0.3021768 0.697378)
(1.499971 0.3021179 0.6973123)
(1.699986 0.3020996 0.6972902)
(1.899993 0.3020936 0.6972842)
(2.099997 0.3020923 0.6972854)
(0.2583408 0.4523063 0.6499245)
(0.4995645 0.4995249 0.6987976)
(0.6994573 0.4963212 0.6974027)
(0.899522 0.4932102 0.6962989)
(1.099671 0.4918487 0.6956754)
(1.299804 0.4913603 0.6953734)
(1.499891 0.4911913 0.6952405)
(1.699941 0.4911317 0.6951874)
(1.899968 0.4911111 0.6951723)
(2.099983 0.4911065 0.6951798)
(0.30621 0.7025776 0.6993928)
(0.4964224 0.6994821 0.697896)
(0.6976825 0.6977513 0.695929)
(0.8986257 0.6959331 0.6943383)
(1.099215 0.6948465 0.6934033)
(1.299558 0.6943555 0.6929376)
(1.499755 0.6941578 0.6927215)
(1.699865 0.6940831 0.6926304)
(1.899926 0.6940556 0.6926049)
(2.099959 0.6940472 0.6926232)
(0.3034493 0.9009097 0.6991226)
(0.4933744 0.8997555 0.6973295)
(0.6958409 0.8991566 0.6948947)
(0.8975921 0.8984102 0.692799)
(1.098667 0.8978783 0.6915029)
(1.299272 0.897628 0.6908595)
(1.499602 0.8975371 0.6905635)
(1.699783 0.897509 0.6904384)
(1.899881 0.8974968 0.6904045)
(2.099932 0.8974818 0.6904337)
(0.3025157 1.100098 0.6990241)
(0.492073 1.100251 0.6970696)
(0.6947637 1.100543 0.6943958)
(0.8968667 1.100768 0.6919977)
(1.098243 1.100943 0.6904378)
(1.299048 1.101094 0.689647)
(1.499484 1.101212 0.6892917)
(1.69972 1.101283 0.6891433)
(1.899847 1.101305 0.6891042)
(2.099913 1.101278 0.6891407)
(0.302318 1.300201 0.6989972)
(0.4916981 1.30099 0.697012)
(0.6943891 1.302247 0.6943061)
(0.8965884 1.30352 0.6918605)
(1.09807 1.30452 0.6902396)
(1.298956 1.305179 0.6894049)
(1.499437 1.305561 0.6890355)
(1.699696 1.305755 0.6888828)
(1.899834 1.305818 0.6888435)
(2.099906 1.305774 0.6888827)
(0.3023517 1.500495 0.6990196)
(0.4918089 1.502203 0.6971221)
(0.6945441 1.504896 0.6945761)
(0.8967414 1.507574 0.6923269)
(1.098179 1.509574 0.6908785)
(1.299021 1.510779 0.6901461)
(1.499476 1.511418 0.6898205)
(1.69972 1.511723 0.6896863)
(1.899848 1.511819 0.6896527)
(2.099915 1.511757 0.6896898)
(0.3026376 1.700951 0.6991017)
(0.4924618 1.704445 0.6974471)
(0.6952923 1.709599 0.6953188)
(0.897316 1.714278 0.6935415)
(1.098543 1.717327 0.6924528)
(1.299232 1.71894 0.6919158)
(1.499595 1.719731 0.6916751)
(1.699787 1.720088 0.6915752)
(1.899887 1.720196 0.6915516)
(2.099939 1.720125 0.6915828)
(0.3037561 1.901054 0.6992817)
(0.4942599 1.908916 0.6980917)
(0.6967364 1.917983 0.6966716)
(0.8982199 1.924657 0.6955638)
(1.099094 1.928161 0.6949224)
(1.299538 1.929782 0.6946143)
(1.499765 1.93051 0.6944712)
(1.69988 1.930818 0.6944101)
(1.899939 1.930907 0.6943973)
(2.09997 1.930846 0.6944199)
(0.307019 2.101008 0.6996202)
(0.4977016 2.118132 0.6990619)
(0.6985852 2.130461 0.6984411)
(0.8993001 2.137527 0.6980189)
(1.099663 2.140391 0.6977905)
(1.299849 2.141501 0.6976734)
(1.499934 2.141939 0.6976141)
(1.69997 2.142109 0.6975865)
(1.899986 2.142156 0.6975826)
(2.099996 2.142122 0.6975964)
(0.2562976 2.243989 0.6489266)
(0.4500663 2.271468 0.6497949)
(0.7024087 2.331749 0.7002289)
(0.9008327 2.335895 0.700525)
(1.100113 2.337225 0.7006734)
(1.30006 2.33761 0.7006773)
(1.500044 2.337732 0.7006679)
(1.700024 2.337774 0.7006626)
(1.900011 2.337785 0.7006642)
(2.100007 2.337777 0.7006704)
(0.2303944 2.625823 0.6249265)
(0.5159648 2.651248 0.7006151)
(0.7164588 2.615499 0.7022963)
(0.9037477 2.603831 0.7033108)
(1.100486 2.599408 0.7035137)
(1.300106 2.598142 0.7034765)
(1.50009 2.597765 0.7034192)
(1.700069 2.597631 0.7033951)
(1.900046 2.59759 0.7033924)
(2.10003 2.597601 0.7033983)
(0.3074003 2.898233 0.7003188)
(0.5011695 2.869333 0.6995816)
(0.7011818 2.837906 0.6992685)
(0.9006531 2.819324 0.6990722)
(1.10013 2.811079 0.6989497)
(1.300004 2.807857 0.6988252)
(1.500005 2.806597 0.6987393)
(1.700015 2.806096 0.6986977)
(1.900019 2.805936 0.6986867)
(2.100023 2.805981 0.6986952)
(0.304673 3.097483 0.7005154)
(0.4962659 3.083438 0.6987528)
(0.6986541 3.063699 0.6973894)
(0.8992718 3.047725 0.6962817)
(1.099597 3.038801 0.6956046)
(1.299757 3.034533 0.6952676)
(1.499864 3.032561 0.6951017)
(1.699931 3.031692 0.6950277)
(1.89997 3.0314 0.6950066)
(2.099993 3.03149 0.6950232)
(0.3036178 3.298214 0.7005511)
(0.4940184 3.291345 0.6981626)
(0.6966274 3.280386 0.6959914)
(0.8981713 3.269747 0.6941678)
(1.098964 3.262388 0.6930408)
(1.299433 3.258316 0.6924617)
(1.499689 3.25623 0.6921986)
(1.699832 3.255236 0.6920866)
(1.89991 3.254885 0.6920552)
(2.099951 3.254994 0.6920803)
(0.303297 3.499017 0.7004955)
(0.4931312 3.495411 0.6978449)
(0.6955311 3.489455 0.6952087)
(0.8973287 3.483225 0.6928467)
(1.098472 3.478326 0.6913272)
(1.299155 3.475205 0.690551)
(1.499534 3.473455 0.6902021)
(1.699743 3.472564 0.6900558)
(1.899857 3.472232 0.6900152)
(2.099916 3.472328 0.6900465)
(0.3031898 3.699479 0.700464)
(0.4927796 3.697543 0.6977065)
(0.6950437 3.694277 0.6948663)
(0.8968788 3.690726 0.6922444)
(1.098166 3.687738 0.6904946)
(1.298973 3.685653 0.6895846)
(1.499428 3.684383 0.689179)
(1.699682 3.683696 0.6890098)
(1.89982 3.683427 0.6889626)
(2.099892 3.683494 0.6889972)
(0.3031495 3.899724 0.700455)
(0.4926417 3.898682 0.6976617)
(0.6948421 3.896895 0.6947472)
(0.8966817 3.894892 0.6920296)
(1.098016 3.893131 0.6901908)
(1.298876 3.891828 0.6892236)
(1.499368 3.890986 0.688791)
(1.699645 3.890509 0.6886106)
(1.899797 3.890313 0.6885605)
(2.099879 3.890353 0.6885973)
(0.3031328 4.099854 0.700453)
(0.4925834 4.099299 0.6976474)
(0.6947535 4.098333 0.6947036)
(0.8965888 4.097225 0.6919461)
(1.097937 4.096219 0.6900683)
(1.298819 4.095444 0.6890736)
(1.499329 4.094922 0.6886268)
(1.699619 4.094614 0.6884409)
(1.899781 4.094482 0.6883906)
(2.09987 4.094503 0.6884302)
(0.452305 0.2583286 0.8499543)
(0.7025636 0.3060915 0.8995778)
(0.9008604 0.3032638 0.8992627)
(1.099968 0.302286 0.8990945)
(1.299934 0.3020428 0.8990163)
(1.499967 0.3019816 0.8989845)
(1.699984 0.3019617 0.8989729)
(1.899992 0.3019541 0.8989696)
(2.099996 0.3019506 0.8989706)
(0.2583356 0.4522967 0.8499785)
(0.4994483 0.4994746 0.8996113)
(0.6993359 0.4962221 0.8991004)
(0.8994422 0.4930491 0.8986545)
(1.099622 0.4916449 0.8983766)
(1.299775 0.4911356 0.8982303)
(1.499874 0.4909574 0.8981614)
(1.699931 0.4908928 0.8981322)
(1.899962 0.490867 0.8981239)
(2.09998 0.4908569 0.8981289)
(0.3060767 0.7025697 0.8998139)
(0.4961436 0.6994602 0.8993201)
(0.6973886 0.6976881 0.8986167)
(0.8984163 0.6957944 0.8979916)
(1.099089 0.694641 0.8975818)
(1.299484 0.6941169 0.8973583)
(1.499712 0.6939048 0.8972479)
(1.699841 0.6938227 0.897199)
(1.899912 0.6937886 0.8971851)
(2.09995 0.6937734 0.897195)
(0.3032422 0.9009222 0.8997256)
(0.492933 0.8997779 0.8991465)
(0.6953447 0.899198 0.8983057)
(0.8972193 0.8984407 0.8975108)
(1.098434 0.89788 0.8969529)
(1.29914 0.8976112 0.8966482)
(1.499528 0.8975182 0.8965015)
(1.699741 0.89749 0.8964372)
(1.899856 0.8974746 0.8964192)
(2.099917 0.8974527 0.8964338)
(0.3022701 1.100116 0.8996903)
(0.4915407 1.100335 0.8990679)
(0.6941332 1.100747 0.8981642)
(0.8963692 1.101098 0.8972699)
(1.097928 1.101369 0.8966024)
(1.298864 1.101588 0.8962315)
(1.499382 1.10175 0.896061)
(1.699663 1.101844 0.8959885)
(1.899813 1.101871 0.8959689)
(2.099891 1.101837 0.8959869)
(0.3020645 1.300237 0.899678)
(0.491146 1.301169 0.8990513)
(0.693721 1.302697 0.8981533)
(0.8960447 1.304308 0.8972619)
(1.09773 1.305622 0.8965875)
(1.298751 1.306506 0.8962121)
(1.499324 1.307013 0.8960436)
(1.699633 1.307265 0.8959733)
(1.899798 1.307346 0.8959553)
(2.099882 1.307291 0.8959741)
(0.3021093 1.500563 0.8996825)
(0.4912884 1.502533 0.8990899)
(0.693921 1.505725 0.8982643)
(0.8962471 1.509055 0.8974734)
(1.097864 1.511668 0.8968962)
(1.298833 1.513276 0.8965792)
(1.499373 1.514113 0.8964363)
(1.699663 1.514506 0.8963779)
(1.899816 1.51463 0.896364)
(2.099894 1.514555 0.8963815)
(0.3024201 1.701059 0.89971)
(0.4920151 1.704986 0.8992028)
(0.694792 1.710958 0.898533)
(0.8969236 1.716625 0.8979399)
(1.098288 1.720473 0.8975315)
(1.299093 1.72254 0.8973124)
(1.49952 1.723542 0.8972148)
(1.699746 1.723993 0.8971745)
(1.899864 1.724132 0.8971657)
(2.099925 1.724046 0.89718)
(0.3035847 1.901202 0.8997736)
(0.4939384 1.909676 0.8994182)
(0.6964065 1.919784 0.8989864)
(0.8979684 1.927516 0.8986455)
(1.098953 1.931721 0.8984342)
(1.299463 1.933687 0.8983248)
(1.499725 1.934578 0.8982733)
(1.699859 1.934958 0.8982516)
(1.899928 1.93507 0.8982477)
(2.099965 1.934999 0.8982576)
(0.306915 2.101149 0.8998868)
(0.4975307 2.118814 0.899724)
(0.6984745 2.132111 0.8995361)
(0.8992268 2.140011 0.8994043)
(1.099622 2.143307 0.8993291)
(1.29983 2.144609 0.8992905)
(1.499925 2.145132 0.8992717)
(1.699965 2.145338 0.8992638)
(1.899984 2.145397 0.8992633)
(2.099996 2.14536 0.8992689)
(0.2562794 2.244009 0.8489664)
(0.4500442 2.271799 0.8499045)
(0.702623 2.332591 0.8999741)
(0.9010139 2.337121 0.8999783)
(1.100141 2.338659 0.8999877)
(1.300073 2.339106 0.8999914)
(1.500054 2.33925 0.8999917)
(1.70003 2.339302 0.8999923)
(1.900014 2.339316 0.899994)
(2.100008 2.339307 0.8999962)
(0.230726 2.624903 0.8256184)
(0.5161895 2.649949 0.9000016)
(0.7169436 2.612411 0.900181)
(0.9040379 2.599734 0.9003022)
(1.100557 2.594837 0.900341)
(1.300122 2.593406 0.900334)
(1.500105 2.592979 0.9003227)
(1.700081 2.592827 0.9003181)
(1.900055 2.592782 0.9003185)
(2.100037 2.592796 0.9003212)
(0.3069909 2.898085 0.8999912)
(0.5009021 2.867241 0.8998554)
(0.7011669 2.833091 0.8997684)
(0.9007349 2.812189 0.8996955)
(1.100155 2.802682 0.8996454)
(1.300007 2.798922 0.8996024)
(1.500008 2.797446 0.8995733)
(1.70002 2.796859 0.8995592)
(1.900024 2.796674 0.8995557)
(2.100027 2.796731 0.8995596)
(0.3039857 3.097274 0.8999683)
(0.4954887 3.08161 0.8996435)
(0.6982351 3.059257 0.8992685)
(0.8990473 3.040533 0.8989383)
(1.099512 3.029732 0.8987148)
(1.299716 3.024549 0.8985893)
(1.499844 3.022157 0.8985257)
(1.699921 3.021107 0.8984971)
(1.899966 3.020757 0.8984891)
(2.099992 3.020868 0.8984959)
(0.3027557 3.297978 0.8999416)
(0.4929504 3.290113 0.8994638)
(0.6959299 3.277251 0.8988362)
(0.897806 3.264204 0.8982332)
(1.098746 3.254816 0.8977851)
(1.29933 3.249574 0.8975254)
(1.499635 3.24694 0.8974113)
(1.699802 3.245699 0.8973634)
(1.899893 3.245264 0.8973503)
(2.099942 3.245397 0.897361)
(0.3023858 3.498865 0.899922)
(0.4919321 3.494666 0.8993572)
(0.6946413 3.487559 0.8985731)
(0.8968096 3.4798 0.8977739)
(1.098202 3.473395 0.8971862)
(1.298991 3.469233 0.8968583)
(1.499444 3.466955 0.8967046)
(1.699692 3.465819 0.8966416)
(1.899826 3.465399 0.8966244)
(2.099895 3.465516 0.8966383)
(0.3022624 3.699394 0.899911)
(0.4915232 3.697116 0.8993074)
(0.6940581 3.693192 0.8984483)
(0.8962455 3.688776 0.8975433)
(1.097812 3.684922 0.8968414)
(1.298764 3.682168 0.8964455)
(1.499311 3.680506 0.8962684)
(1.699614 3.679627 0.8961952)
(1.899779 3.679284 0.8961758)
(2.099865 3.679366 0.8961921)
(0.3022155 3.899677 0.8999071)
(0.4913604 3.898445 0.899289)
(0.6938137 3.89629 0.8984004)
(0.895997 3.893805 0.8974525)
(1.097615 3.891559 0.8966998)
(1.298638 3.889866 0.8962655)
(1.499234 3.888774 0.8960724)
(1.699567 3.888164 0.8959942)
(1.89975 3.887915 0.8959748)
(2.099848 3.887963 0.8959937)
(0.3021959 4.099829 0.8999056)
(0.4912909 4.099171 0.8992806)
(0.6937054 4.098004 0.8983765)
(0.8958802 4.096632 0.897407)
(1.097515 4.095355 0.8966314)
(1.298565 4.094356 0.8961796)
(1.499184 4.093681 0.8959783)
(1.699534 4.093289 0.8958987)
(1.899729 4.093122 0.8958817)
(2.099835 4.093147 0.8959054)
(0.4522996 0.2583335 1.049992)
(0.7025427 0.3061845 1.099963)
(0.9008444 0.3034189 1.09989)
(1.099964 0.3024724 1.099849)
(1.299934 0.3022413 1.099831)
(1.499967 0.3021835 1.099825)
(1.69999 0.3021604 1.099828)
(1.900012 0.3021447 1.099836)
(2.100015 0.302138 1.099826)
(0.2583314 0.4523011 1.049999)
(0.4994645 0.4995328 1.100135)
(0.6993425 0.4964007 1.100233)
(0.8994473 0.4933453 1.100273)
(1.099626 0.4920052 1.100287)
(1.299776 0.4915242 1.10029)
(1.499874 0.491357 1.100289)
(1.699931 0.4912927 1.100287)