/*--------------------------------*- C++ -*----------------------------------*\
  =========                 |
  \\      /  F ield         | OpenFOAM: The Open Source CFD Toolbox
   \\    /   O peration     | Website:  https://openfoam.org
    \\  /    A nd           | Version:  7
     \\/     M anipulation  |
\*---------------------------------------------------------------------------*/
FoamFile
{
    version     2.0;
    format      ascii;
    class       volScalarField;
    location    "0.1";
    object      Cx;
}
// * * * * * * * * * * * * * * * * * * * * * * * * * * * * * * * * * * * * * //

dimensions      [0 1 0 0 0 0 0];

internalField   nonuniform List<scalar> 
89125
(
0.6507243
0.8498363
1.04994
1.249958
1.44996
1.649961
1.849961
2.049961
0.5009685
0.7003247
0.8998527
1.099913
1.299965
1.499986
1.699994
1.899998
2.1
0.2334727
0.5022278
0.7004929
0.8998283
1.099879
1.299945
1.499975
1.699989
1.899996
2.099999
0.233528
0.5022662
0.7005226
0.8997714
1.099844
1.299927
1.499966
1.699984
1.899993
2.099998
0.2335272
0.5021759
0.7004612
0.8997319
1.09982
1.299914
1.499959
1.699981
1.899992
2.099997
0.2335271
0.5021436
0.7004332
0.8997154
1.099811
1.299909
1.499957
1.69998
1.899991
2.099997
0.2335273
0.5021621
0.7004511
0.8997281
1.099819
1.299913
1.499959
1.699981
1.899992
2.099998
0.2335277
0.5022304
0.7005065
0.8997703
1.099845
1.299926
1.499964
1.699983
1.899995
2.099999
0.2335276
0.5022314
0.7004823
0.8998453
1.099893
1.299951
1.499972
1.699982
1.899997
2.099995
0.2335205
0.5015293
0.700263
0.8999613
1.099962
1.299978
1.500016
1.699946
1.899964
2.099967
0.2332629
0.4519004
0.6491378
0.8490713
1.049012
1.249003
1.449005
1.649862
1.847984
2.048948
0.4121595
0.6121919
0.8257216
1.012192
1.212192
1.412193
1.611957
1.82334
2.012192
0.4485563
0.6498361
0.8498802
1.050005
1.250002
1.450004
1.65
1.849995
2.05007
0.4990738
0.6997015
0.8997446
1.0999
1.299967
1.49999
1.699998
1.900004
2.100011
0.4995972
0.6996164
0.8995409
1.099805
1.299931
1.499976
1.699992
1.899999
2.100003
0.4995526
0.6995242
0.8994033
1.099732
1.2999
1.499962
1.699986
1.899995
2.1
0.4994669
0.6994276
0.8993316
1.099691
1.299879
1.499952
1.69998
1.899992
2.099998
0.4994288
0.6993822
0.8992979
1.09967
1.299867
1.499946
1.699977
1.89999
2.099996
0.4994171
0.6993666
0.899285
1.099662
1.299862
1.499943
1.699975
1.899989
2.099996
0.4994159
0.6993614
0.8992798
1.099657
1.299859
1.499941
1.699974
1.899988
2.099995
0.4523616
0.7015494
0.9003654
1.099959
1.299966
1.499986
1.699994
1.899997
2.099999
0.2587484
0.5002696
0.6998544
0.8997624
1.099839
1.299913
1.499956
1.699978
1.899989
2.099995
0.3084903
0.4988969
0.6990876
0.8994538
1.099693
1.299835
1.499914
1.699956
1.899978
2.09999
0.3070653
0.4975046
0.6983928
0.8991295
1.099534
1.299754
1.499872
1.699933
1.899966
2.099984
0.3065833
0.4969602
0.6980206
0.8989209
1.099423
1.299696
1.499841
1.699917
1.899958
2.09998
0.3064917
0.4968108
0.6978933
0.8988418
1.099379
1.299673
1.499829
1.699912
1.899955
2.099979
0.3065087
0.4968544
0.6979451
0.8988828
1.099406
1.29969
1.499839
1.699917
1.899959
2.099981
0.3066476
0.4971193
0.6981957
0.8990505
1.099507
1.299746
1.49987
1.699934
1.899968
2.099986
0.3072368
0.4978858
0.698742
0.8993546
1.099673
1.299835
1.499916
1.699959
1.899981
2.099993
0.3089323
0.4995531
0.6994721
0.8997142
1.099865
1.299937
1.499974
1.699994
1.899983
2.099997
0.2578805
0.4503042
0.6499095
0.8499232
1.049933
1.249926
1.449923
1.649962
1.849872
2.049915
0.2302693
0.5082489
0.7062337
0.9007138
1.100056
1.300016
1.500019
1.700015
1.900015
2.100025
0.2586232
0.5015991
0.7003461
0.900043
1.099958
1.299969
1.499989
1.7
1.900007
2.100012
0.2581829
0.4997594
0.6992308
0.8995259
1.099744
1.299871
1.499938
1.699972
1.89999
2.1
0.2581004
0.4989875
0.6985035
0.8991036
1.09953
1.299765
1.499884
1.699943
1.899973
2.099989
0.2580834
0.4986885
0.6981531
0.8988547
1.099384
1.299686
1.499842
1.69992
1.89996
2.09998
0.2580784
0.4985728
0.6980011
0.8987312
1.099303
1.299638
1.499814
1.699904
1.899951
2.099975
0.258078
0.4985336
0.6979425
0.8986785
1.099265
1.299613
1.499799
1.699895
1.899945
2.099972
0.2580823
0.4985239
0.6979196
0.8986547
1.099245
1.299598
1.499789
1.699889
1.899941
2.09997
0.4523126
0.7024661
0.9007461
1.099981
1.299954
1.499978
1.69999
1.899995
2.099998
0.2584272
0.4998895
0.6996966
0.8996581
1.099756
1.299855
1.499921
1.699958
1.899978
2.099989
0.3068242
0.4972912
0.6983246
0.8990155
1.099441
1.299688
1.49983
1.699908
1.899951
2.099974
0.304347
0.4947604
0.6969348
0.898294
1.099082
1.299503
1.499732
1.699856
1.899923
2.099959
0.3035778
0.4937233
0.6961548
0.8978098
1.098819
1.299365
1.499659
1.699818
1.899902
2.099948
0.3034159
0.4934312
0.6958857
0.8976284
1.098715
1.299309
1.499631
1.699803
1.899895
2.099944
0.3034413
0.4935096
0.6959877
0.8977188
1.098777
1.299348
1.499654
1.699817
1.899903
2.099949
0.3036721
0.4940056
0.6965079
0.8980976
1.099004
1.299479
1.499727
1.699858
1.899926
2.099962
0.3045959
0.4954278
0.6975797
0.898736
1.099363
1.299678
1.499837
1.699917
1.899958
2.099981
0.3075497
0.4983159
0.6989166
0.8994733
1.09975
1.299888
1.499952
1.699978
1.899986
2.099997
0.2564764
0.4501945
0.7013739
0.9004501
1.100064
1.300037
1.50003
1.700015
1.900003
2.100005
0.2302854
0.5136421
0.7150393
0.9026258
1.100315
1.300076
1.50006
1.700043
1.900028
2.100018
0.3086799
0.5020247
0.7011671
0.9004554
1.10007
1.299992
1.499998
1.700007
1.900011
2.100015
0.3070111
0.498361
0.6992706
0.899513
1.099693
1.299813
1.499898
1.699949
1.899978
2.099995
0.3062646
0.4967769
0.697813
0.8986866
1.099263
1.299595
1.499781
1.699884
1.89994
2.09997
0.3060443
0.496166
0.6970757
0.8981394
1.098944
1.299418
1.499684
1.69983
1.899908
2.099949
0.305971
0.4959281
0.6967548
0.8978632
1.09876
1.299307
1.49962
1.699792
1.899886
2.099935
0.3059445
0.4958395
0.696626
0.8977419
1.098671
1.299249
1.499583
1.69977
1.899872
2.099928
0.3059345
0.4958055
0.6965715
0.8976852
1.098624
1.299214
1.499559
1.699754
1.899862
2.099922
0.4523147
0.7025967
0.9008685
1.099977
1.299941
1.499971
1.699986
1.899993
2.099997
0.2583408
0.4995645
0.6994573
0.899522
1.099671
1.299804
1.499891
1.699941
1.899968
2.099983
0.30621
0.4964224
0.6976825
0.8986257
1.099215
1.299558
1.499755
1.699865
1.899926
2.099959
0.3034493
0.4933744
0.6958409
0.8975921
1.098667
1.299272
1.499602
1.699783
1.899881
2.099932
0.3025157
0.492073
0.6947637
0.8968667
1.098243
1.299048
1.499484
1.69972
1.899847
2.099913
0.302318
0.4916981
0.6943891
0.8965884
1.09807
1.298956
1.499437
1.699696
1.899834
2.099906
0.3023517
0.4918089
0.6945441
0.8967414
1.098179
1.299021
1.499476
1.69972
1.899848
2.099915
0.3026376
0.4924618
0.6952923
0.897316
1.098543
1.299232
1.499595
1.699787
1.899887
2.099939
0.3037561
0.4942599
0.6967364
0.8982199
1.099094
1.299538
1.499765
1.69988
1.899939
2.09997
0.307019
0.4977016
0.6985852
0.8993001
1.099663
1.299849
1.499934
1.69997
1.899986
2.099996
0.2562976
0.4500663
0.7024087
0.9008327
1.100113
1.30006
1.500044
1.700024
1.900011
2.100007
0.2303944
0.5159648
0.7164588
0.9037477
1.100486
1.300106
1.50009
1.700069
1.900046
2.10003
0.3074003
0.5011695
0.7011818
0.9006531
1.10013
1.300004
1.500005
1.700015
1.900019
2.100023
0.304673
0.4962659
0.6986541
0.8992718
1.099597
1.299757
1.499864
1.699931
1.89997
2.099993
0.3036178
0.4940184
0.6966274
0.8981713
1.098964
1.299433
1.499689
1.699832
1.89991
2.099951
0.303297
0.4931312
0.6955311
0.8973287
1.098472
1.299155
1.499534
1.699743
1.899857
2.099916
0.3031898
0.4927796
0.6950437
0.8968788
1.098166
1.298973
1.499428
1.699682
1.89982
2.099892
0.3031495
0.4926417
0.6948421
0.8966817
1.098016
1.298876
1.499368
1.699645
1.899797
2.099879
0.3031328
0.4925834
0.6947535
0.8965888
1.097937
1.298819
1.499329
1.699619
1.899781
2.09987
0.452305
0.7025636
0.9008604
1.099968
1.299934
1.499967
1.699984
1.899992
2.099996
0.2583356
0.4994483
0.6993359
0.8994422
1.099622
1.299775
1.499874
1.699931
1.899962
2.09998
0.3060767
0.4961436
0.6973886
0.8984163
1.099089
1.299484
1.499712
1.699841
1.899912
2.09995
0.3032422
0.492933
0.6953447
0.8972193
1.098434
1.29914
1.499528
1.699741
1.899856
2.099917
0.3022701
0.4915407
0.6941332
0.8963692
1.097928
1.298864
1.499382
1.699663
1.899813
2.099891
0.3020645
0.491146
0.693721
0.8960447
1.09773
1.298751
1.499324
1.699633
1.899798
2.099882
0.3021093
0.4912884
0.693921
0.8962471
1.097864
1.298833
1.499373
1.699663
1.899816
2.099894
0.3024201
0.4920151
0.694792
0.8969236
1.098288
1.299093
1.49952
1.699746
1.899864
2.099925
0.3035847
0.4939384
0.6964065
0.8979684
1.098953
1.299463
1.499725
1.699859
1.899928
2.099965
0.306915
0.4975307
0.6984745
0.8992268
1.099622
1.29983
1.499925
1.699965
1.899984
2.099996
0.2562794
0.4500442
0.702623
0.9010139
1.100141
1.300073
1.500054
1.70003
1.900014
2.100008
0.230726
0.5161895
0.7169436
0.9040379
1.100557
1.300122
1.500105
1.700081
1.900055
2.100037
0.3069909
0.5009021
0.7011669
0.9007349
1.100155
1.300007
1.500008
1.70002
1.900024
2.100027
0.3039857
0.4954887
0.6982351
0.8990473
1.099512
1.299716
1.499844
1.699921
1.899966
2.099992
0.3027557
0.4929504
0.6959299
0.897806
1.098746
1.29933
1.499635
1.699802
1.899893
2.099942
0.3023858
0.4919321
0.6946413
0.8968096
1.098202
1.298991
1.499444
1.699692
1.899826
2.099895
0.3022624
0.4915232
0.6940581
0.8962455
1.097812
1.298764
1.499311
1.699614
1.899779
2.099865
0.3022155
0.4913604
0.6938137
0.895997
1.097615
1.298638
1.499234
1.699567
1.89975
2.099848
0.3021959
0.4912909
0.6937054
0.8958802
1.097515
1.298565
1.499184
1.699534
1.899729
2.099835
0.4522996
0.7025427
0.9008444
1.099964
1.299934
1.499967
1.69999
1.900012
2.100015
0.2583314
0.4994645
0.6993425
0.8994473
1.099626
1.299776
1.499874
1.699931
1.899962
2.09998
0.3061037
0.4961919
0.6974217
0.8984334
1.099097
1.299487
1.499714
1.699842
1.899913
2.099951
0.3032898
0.4930011
0.6953973
0.8972483
1.098448
1.299145
1.49953
1.699742
1.899857
2.099917
0.3023308
0.4916205
0.6942033
0.8964105
1.097949
1.298873
1.499386
1.699665
1.899814
2.099891
0.302148
0.4912745
0.6938286
0.8961065
1.097759
1.298763
1.499328
1.699635
1.899799
2.099882
0.302224
0.4914832
0.6940737
0.8963298
1.0979
1.298847
1.499379
1.699665
1.899817
2.099895
0.3025537
0.4922412
0.6949612
0.8970101
1.098323
1.299107
1.499525
1.699748
1.899865
2.099925
0.3037073
0.494133
0.6965423
0.8980329
1.098979
1.299473
1.499729
1.69986
1.899928
2.099965
0.3069886
0.4976309
0.6985395
0.8992564
1.099633
1.299834
1.499927
1.699966
1.899984
2.099996
0.2562811
0.4500557
0.7026321
0.901019
1.100142
1.300074
1.500055
1.70003
1.900014
2.100008
0.2323891
0.5164188
0.7169516
0.9040403
1.100557
1.300122
1.500105
1.700081
1.900055
2.100037
0.3070714
0.5010188
0.7011882
0.9007393
1.100156
1.300008
1.500008
1.70002
1.900024
2.100027
0.3039969
0.4955123
0.6982454
0.899051
1.099513
1.299717
1.499844
1.699922
1.899966
2.099992
0.3027587
0.4929562
0.6959345
0.8978087
1.098748
1.29933
1.499635
1.699802
1.899893
2.099942
0.3023868
0.4919347
0.6946444
0.8968117
1.098203
1.298992
1.499445
1.699692
1.899826
2.099895
0.3022631
0.4915253
0.6940611
0.896248
1.097814
1.298765
1.499312
1.699614
1.899779
2.099865
0.3022168
0.4913642
0.6938185
0.8960007
1.097618
1.29864
1.499235
1.699567
1.89975
2.099847
0.3021987
0.4912978
0.6937131
0.8958858
1.097519
1.298567
1.499185
1.699534
1.899729
2.099835
0.4523092
0.7023628
0.9007045
1.099967
1.299944
1.499973
1.700006
1.900217
2.100309
0.2583476
0.4996388
0.699466
0.8995312
1.099681
1.299808
1.499893
1.69994
1.899969
2.099991
0.3063599
0.4966546
0.6977944
0.8986716
1.099234
1.299565
1.499758
1.699867
1.899929
2.099963
0.3037403
0.493659
0.6960068
0.8976682
1.098698
1.299284
1.499608
1.699786
1.899883
2.099934
0.3028726
0.4923591
0.694967
0.8969705
1.098288
1.299066
1.499491
1.699724
1.899849
2.099914
0.3027831
0.4921972
0.6947171
0.8967478
1.098136
1.298981
1.499447
1.6997
1.899836
2.099907
0.302953
0.4926237
0.6950364
0.8969644
1.098266
1.299053
1.499488
1.699724
1.89985
2.099916
0.303371
0.493428
0.695851
0.8975549
1.09863
1.299262
1.499606
1.699791
1.899888
2.099939
0.3044559
0.4951105
0.6971942
0.8984015
1.099157
1.29956
1.499773
1.699882
1.89994
2.099971
0.3074762
0.4981557
0.6988086
0.8993838
1.099692
1.299859
1.499938
1.69997
1.899986
2.099997
0.2563199
0.4501167
0.7024397
0.9008464
1.100116
1.300062
1.500046
1.700025
1.900011
2.100006
0.2296903
0.5161772
0.7164707
0.9037515
1.100487
1.300106
1.50009
1.700069
1.900046
2.10003
0.3074148
0.5012873
0.7012118
0.9006608
1.100133
1.300004
1.500006
1.700016
1.900019
2.100023
0.3046885
0.4962987
0.6986715
0.8992793
1.099601
1.299758
1.499865
1.699932
1.89997
2.099993
0.3036239
0.4940309
0.6966381
0.898178
1.098968
1.299435
1.49969
1.699832
1.89991
2.099951
0.3033002
0.4931388
0.6955399
0.8973351
1.098476
1.299156
1.499535
1.699743
1.899857
2.099916
0.3031918
0.4927861
0.695053
0.8968865
1.09817
1.298976
1.49943
1.699682
1.89982
2.099893
0.3031552
0.4926557
0.6948578
0.8966932
1.098022
1.29888
1.49937
1.699646
1.899798
2.099879
0.3031468
0.4926132
0.6947807
0.8966065
1.097947
1.298824
1.499331
1.69962
1.899781
2.09987
0.4520443
0.7013629
0.900387
1.099984
1.299952
1.499985
1.699999
1.900274
2.102046
0.2585212
0.5000644
0.6996476
0.8996607
1.099775
1.299857
1.499925
1.699955
1.899979
2.100026
0.3068796
0.4980463
0.6985058
0.8990603
1.099458
1.299693
1.499832
1.699911
1.899956
2.099985
0.3058375
0.4954452
0.6971768
0.898366
1.099103
1.299511
1.499735
1.699859
1.899927
2.099962
0.3041148
0.4941984
0.6963895
0.8978969
1.098849
1.299375
1.499664
1.699821
1.899905
2.099949
0.3051709
0.4944669
0.6963212
0.8977788
1.098764
1.299326
1.499637
1.699806
1.899897
2.099944
0.3048362
0.49553
0.6967264
0.8979545
1.098848
1.29937
1.499662
1.69982
1.899905
2.099949
0.3060747
0.4964052
0.6973696
0.8983585
1.099078
1.2995
1.499735
1.699861
1.899928
2.099963
0.3069175
0.4976011
0.6983025
0.8989355
1.099416
1.299693
1.499843
1.699918
1.89996
2.099982
0.3088788
0.4995499
0.6992751
0.8995647
1.099774
1.299896
1.499956
1.699973
1.899988
2.1
0.2567061
0.4503493
0.7014132
0.90046
1.100064
1.300042
1.50003
1.700014
1.900004
2.100001
0.2574615
0.5137495
0.715046
0.9026285
1.100315
1.300076
1.50006
1.700044
1.900029
2.100019
0.3087312
0.5020332
0.7011807
0.9004615
1.100073
1.299993
1.499998
1.700007
1.900011
2.100014
0.3070207
0.4983778
0.6992837
0.8995204
1.099696
1.299815
1.499898
1.699949
1.899978
2.099995
0.306276
0.4967987
0.6978283
0.8986948
1.099267
1.299596
1.499782
1.699885
1.89994
2.09997
0.3060476
0.4961847
0.6970917
0.8981486
1.098949
1.29942
1.499685
1.69983
1.899908
2.099949
0.3059722
0.4959329
0.696771
0.8978741
1.098766
1.29931
1.499621
1.699793
1.899886
2.099935
0.3059537
0.4958724
0.6966556
0.8977589
1.098679
1.299253
1.499585
1.699771
1.899872
2.099928
0.3059907
0.4958979
0.6966284
0.8977129
1.098636
1.29922
1.499562
1.699755
1.899862
2.099922
0.4515464
0.652136
0.8492002
1.049299
1.248821
1.448979
1.649001
1.848898
2.049958
0.2588417
0.5001201
0.6996019
0.8997822
1.099879
1.299907
1.49996
1.699977
1.899983
2.100029
0.2575819
0.4995612
0.6990836
0.899431
1.099686
1.299833
1.49991
1.699963
1.899985
2.099999
0.3071188
0.4980477
0.6984522
0.8991114
1.099521
1.29975
1.49987
1.699937
1.899971
2.099988
0.3066985
0.4970485
0.6980032
0.8988886
1.099406
1.299691
1.49984
1.699919
1.89996
2.099982
0.3066338
0.4973672
0.6979724
0.8988259
1.099364
1.299667
1.499828
1.699912
1.899956
2.099979
0.255697
0.4986213
0.6982495
0.8989091
1.099398
1.299685
1.499838
1.699918
1.899959
2.099981
0.2561743
0.4991704
0.6985464
0.8990741
1.099494
1.299739
1.499869
1.699935
1.899969
2.099986
0.2564285
0.499734
0.6989783
0.8993396
1.09965
1.299827
1.499918
1.699959
1.899982
2.099997
0.2570039
0.500633
0.6995403
0.8996868
1.099841
1.299945
1.499995
1.699966
1.899992
2.100019
0.2572578
0.4505751
0.6499683
0.8500059
1.050034
1.250032
1.450042
1.650008
1.850005
2.050019
0.2323071
0.5084321
0.706232
0.9007319
1.100057
1.300016
1.50002
1.700016
1.900012
2.100009
0.2580295
0.5016525
0.7003545
0.9000513
1.099961
1.29997
1.499989
1.7
1.900004
2.100007
0.2565235
0.4997795
0.6992409
0.8995317
1.099747
1.299872
1.499938
1.699972
1.899989
2.099998
0.2563105
0.4990459
0.6985236
0.8991108
1.099534
1.299767
1.499885
1.699943
1.899973
2.099988
0.2562581
0.4987836
0.6981801
0.8988638
1.099388
1.299687
1.499842
1.69992
1.899959
2.09998
0.2562099
0.4985916
0.6980275
0.8987416
1.099307
1.299639
1.499815
1.699904
1.899951
2.099975
0.2561821
0.4986259
0.6979837
0.8986941
1.099271
1.299616
1.4998
1.699895
1.899945
2.099972
0.256318
0.4987491
0.6979976
0.8986808
1.099255
1.299602
1.49979
1.699889
1.899941
2.099969
0.4261565
0.6246766
0.8239763
1.025087
1.249596
1.424272
1.650001
1.82407
2.025169
0.2340806
0.499594
0.6999278
0.8997927
1.099834
1.300051
1.499883
1.70008
1.900045
2.099969
0.233678
0.5011137
0.700136
0.8997038
1.09983
1.299953
1.499957
1.70001
1.90002
2.100006
0.2579356
0.5019625
0.7002979
0.8996687
1.099806
1.299919
1.499961
1.69999
1.900001
2.100001
0.2566836
0.5014679
0.700135
0.899602
1.099776
1.299902
1.499956
1.699982
1.899994
2.099999
0.256075
0.5007634
0.6999905
0.8995469
1.099756
1.299894
1.499953
1.69998
1.899992
2.099998
0.2567948
0.5012625
0.700003
0.8995392
1.099754
1.299895
1.499955
1.699981
1.899993
2.099998
0.2341726
0.5006478
0.6999179
0.899535
1.099767
1.299904
1.49996
1.699986
1.899995
2.099999
0.2336723
0.4999787
0.6997634
0.8995811
1.099808
1.299923
1.499967
1.699996
1.900003
2.100004
0.2318344
0.4994835
0.6998015
0.899771
1.099881
1.299963
1.499962
1.700029
1.90001
2.10001
0.2336203
0.4489425
0.649726
0.8499583
1.049958
1.250096
1.450039
1.649855
1.850012
2.049966
0.4283727
0.6242614
0.8243909
1.024361
1.224402
1.424878
1.624501
1.82421
2.024942
0.2319806
0.4483083
0.6497507
0.850004
1.050032
1.250031
1.450028
1.650025
1.850023
2.050028
0.233784
0.4991357
0.6996992
0.8997541
1.099902
1.299967
1.49999
1.699998
1.900001
2.100002
0.2335569
0.499605
0.6996179
0.8995435
1.099806
1.299932
1.499976
1.699992
1.899998
2.100001
0.2335529
0.4996183
0.6995336
0.899406
1.099734
1.2999
1.499962
1.699985
1.899995
2.099999
0.2338529
0.4996682
0.6994434
0.8993352
1.099692
1.299879
1.499952
1.69998
1.899992
2.099998
0.257535
0.4996325
0.6993979
0.8993017
1.099672
1.299868
1.499946
1.699977
1.89999
2.099997
0.2337313
0.499577
0.6993877
0.8992908
1.099663
1.299863
1.499943
1.699975
1.899989
2.099996
0.2338521
0.4996147
0.6993973
0.8992896
1.099661
1.299861
1.499941
1.699974
1.899988
2.099995
0.3490096
0.3780122
0.2334558
0.3481576
0.3877456
0.3733252
0.3782233
0.3449687
0.5878079
0.4230393
0.5753858
0.4279773
0.5757427
0.4481272
0.5492284
0.7742797
0.6244629
0.7755421
0.6246591
0.7757433
0.6498523
0.7499838
0.9878074
0.824149
0.9755307
0.8243623
0.9754596
0.8499312
0.9499869
1.187808
1.024502
1.175506
1.024401
1.175617
1.050045
1.150007
1.387808
1.224496
1.375506
1.224401
1.375608
1.250029
1.349996
1.587827
1.424488
1.57551
1.424391
1.575975
1.450016
1.549995
1.773649
1.624497
1.775507
1.624836
1.775197
1.650017
1.749988
1.987808
1.824496
1.975484
1.824106
1.975447
1.850007
1.949976
2.174279
2.024521
2.175548
2.024554
2.175686
2.050093
2.150039
0.3453114
0.347643
0.230007
0.3467962
0.2337021
0.3482526
0.3463009
0.3487949
0.2336449
0.3482358
0.233559
0.3479894
0.3491501
0.3492914
0.2335557
0.3479477
0.2335459
0.3478478
0.3492886
0.349287
0.2335459
0.3478409
0.2335438
0.3477997
0.349283
0.3492788
0.233544
0.3478017
0.2335433
0.3477847
0.3492781
0.3492773
0.2335434
0.3477882
0.2335433
0.3477818
0.3492776
0.3492786
0.2335434
0.3477862
0.2335444
0.3477868
0.3492813
0.3492848
0.2335453
0.3477963
0.2335493
0.3478037
0.3774894
0.2341922
0.349535
0.3790321
0.233715
0.3496618
0.3738067
0.3448324
0.3737141
0.3446054
0.3790389
0.2337051
0.3496192
0.3790311
0.2336968
0.3495892
0.3737083
0.3444007
0.3737522
0.3443156
0.379036
0.233694
0.3495665
0.3790379
0.2336989
0.3495731
0.3737621
0.3445039
0.373786
0.2283717
0.344947
0.3790421
0.2336973
0.3495738
0.3790318
0.2336979
0.3495632
0.3737881
0.3446034
0.3737925
0.2283946
0.3448564
0.379029
0.2336959
0.3495537
0.3790375
0.2336985
0.3495711
0.3737926
0.2284044
0.3449066
0.3737875
0.2287736
0.3447931
0.379046
0.2336971
0.3495839
0.3790458
0.2337024
0.3496075
0.3737854
0.3445932
0.3737616
0.2282043
0.344896
0.3790314
0.2337075
0.3496374
0.3789625
0.2337326
0.3496679
0.3737517
0.2295944
0.3452977
0.3737078
0.2295987
0.3454075
0.3789539
0.2337405
0.3496496
0.3771999
0.2341578
0.3493316
0.3737117
0.2282177
0.3452958
0.3739872
0.2283823
0.3454952
0.3778166
0.2333152
0.3474887
0.3481166
0.5756673
0.4488504
0.5494857
0.450372
0.5510447
0.7755167
0.6497234
0.7498452
0.6489852
0.7509651
0.9759044
0.8501482
0.9499333
0.8490287
0.9508715
1.15023
1.049986
1.150051
1.175146
1.048827
1.150931
1.374985
1.249932
1.350005
1.225229
1.249151
1.351101
1.576664
1.450033
1.549921
1.575184
1.448993
1.550742
1.774901
1.650035
1.750007
1.625669
1.649004
1.75124
1.975918
1.850067
1.949873
1.849121
1.950894
2.152357
2.049853
2.15016
2.04885
2.151064
0.3484411
0.2336205
0.3486124
0.3467043
0.3494985
0.3494604
0.2569927
0.3500259
0.3515579
0.2330126
0.3547192
0.3502828
0.2569727
0.350054
0.2333133
0.3561701
0.2334883
0.3564388
0.3496665
0.2562909
0.3489527
0.2334317
0.3560928
0.2307428
0.3547317
0.3481974
0.257073
0.348505
0.3524151
0.3524117
0.3494687
0.2579914
0.3502424
0.2307388
0.3545562
0.2330007
0.3551844
0.3501439
0.2336423
0.3488274
0.2308229
0.3531471
0.3504606
0.3484353
0.2331142
0.3492496
0.3496221
0.349513
0.3497948
0.2338711
0.3490685
0.3493743
0.346548
0.3484584
0.3797208
0.3477087
0.3738146
0.3786512
0.2283153
0.345677
0.3876135
0.3740576
0.5752934
0.4484279
0.5492104
0.4118442
0.5880727
0.424221
0.5749245
0.7757135
0.6497415
0.7499675
0.6121752
0.7878193
0.6243989
0.7760141
0.9754362
0.8500329
0.9499773
0.8121801
0.9878066
0.8245558
0.9755025
1.176677
1.050037
1.150002
1.012191
1.187839
1.024496
1.175504
1.375713
1.250029
1.349995
1.212174
1.387821
1.224493
1.375503
1.575515
1.450019
1.549993
1.412245
1.5756
1.424495
1.575506
1.775167
1.650019
1.749986
1.624403
1.787759
1.624491
1.775507
1.975791
1.850014
1.949991
1.812187
1.987816
1.824494
1.975502
2.175189
2.050052
2.149994
2.012255
2.187708
2.024558
2.17505
0.3477239
0.2340169
0.3491952
0.3457868
0.3483596
0.3486251
0.233566
0.3480674
0.3465582
0.3488144
0.3479665
0.2335471
0.347867
0.3491407
0.3492826
0.3479197
0.2336849
0.348196
0.3493089
0.349557
0.3487768
0.2337697
0.3487937
0.3500867
0.3501685
0.3483106
0.2574992
0.3482492
0.350334
0.3503055
0.3484864
0.2337003
0.3483207
0.3499218
0.3496497
0.3487111
0.2338637
0.3485106
0.3500195
0.3496217
0.266407
0.2683535
0.5779248
0.4507602
0.5522715
0.4267153
0.5538537
0.449177
0.549738
0.7500867
0.6497009
0.7510256
0.6525588
0.7517735
0.649741
0.7498721
0.9499816
0.8487775
0.9510216
0.8490198
0.9510911
0.8497667
0.9500076
1.150033
1.048877
1.151082
1.048887
1.151101
1.049873
1.150065
1.350038
1.2489
1.351091
1.24889
1.351106
1.249905
1.350077
1.550039
1.448905
1.551093
1.448892
1.551107
1.449913
1.55008
1.750039
1.648906
1.751093
1.648892
1.751107
1.649916
1.750081
1.950039
1.848906
1.951094
1.848893
1.951107
1.849917
1.950082
2.150039
2.048906
2.151094
2.048893
2.151107
2.049918
2.150082
0.3504993
0.2333618
0.3553647
0.2344864
0.3506284
0.257478
0.3509335
0.3564253
0.2335302
0.3567057
0.2582256
0.3507637
0.2572047
0.3504107
0.3567255
0.2335273
0.3567174
0.2569649
0.3502306
0.2568325
0.3500895
0.3567107
0.2335271
0.3567041
0.2568076
0.3500427
0.2567936
0.3500127
0.3567025
0.2335272
0.3567017
0.2567909
0.3500027
0.2567905
0.350002
0.3567022
0.2335276
0.3567058
0.2567903
0.3499988
0.256793
0.3500158
0.3567097
0.2335277
0.3567119
0.2567958
0.3500184
0.2568139
0.350076
0.3567158
0.2335267
0.356568
0.25684
0.3501113
0.2569855
0.3503083
0.3561794
0.2334247
0.3533768
0.257225
0.3504437
0.2582885
0.3508095
0.3531961
0.3746528
0.2574243
0.3501527
0.379757
0.5516263
0.4248748
0.5750093
0.4499932
0.5499694
0.4286555
0.5753289
0.7509422
0.62498
0.7750858
0.6499299
0.7499514
0.6248429
0.775298
0.9510494
0.8249134
0.9750142
0.8500177
0.9500182
0.824809
0.975253
1.150997
1.024987
1.17501
1.050014
1.149998
1.024788
1.175248
1.350997
1.22499
1.37501
1.25001
1.349994
1.224776
1.375238
1.55107
1.424991
1.574973
1.450005
1.549976
1.424768
1.575265
1.950888
1.824021
1.975016
1.849994
1.950003
1.824668
1.975224
2.150931
2.024983
2.175086
2.049992
2.149969
2.024776
2.175241
0.2863001
0.2840107
0.4878034
0.4122316
0.4876967
0.6878223
0.6122599
0.6844275
1.087807
1.012312
1.087708
1.287807
1.212295
1.287705
1.487808
1.412293
1.487689
2.087822
2.012277
2.084427
0.26539
0.2655163
0.2652595
0.2665084
0.5495009
0.4496378
0.5505242
0.44799
0.5491576
0.4479358
0.5487601
0.7499633
0.6486971
0.7508213
0.6497528
0.7499203
0.6496215
0.7496323
0.9499649
0.8489035
0.9509628
0.8499758
0.9499883
0.8500706
0.9497864
1.150004
1.04898
1.150998
1.05004
1.149994
1.050175
1.149806
1.350002
1.248995
1.351002
1.250032
1.349987
1.250194
1.349806
1.549999
1.448998
1.551003
1.450027
1.549983
1.450199
1.549805
1.749998
1.648998
1.751003
1.650025
1.749978
1.6502
1.749802
1.949992
1.848995
1.951001
1.850016
1.949969
1.850196
1.949799
2.150048
2.049001
2.151005
2.050034
2.149987
2.050194
2.149806
0.2653855
0.2665674
0.2654358
0.2666418
0.265354
0.2670544
0.2653741
0.2671027
0.2653473
0.2670814
0.2653619
0.2671088
0.2653457
0.2670795
0.2653586
0.267108
0.2653453
0.267079
0.2653577
0.2671078
0.2653457
0.267079
0.2653577
0.267108
0.2653516
0.2670799
0.2653609
0.2671097
0.2675864
0.2675363
0.3501839
0.380459
0.256744
0.3498191
0.3820317
0.2799328
0.2799161
0.3484573
0.258832
0.3508867
0.2302891
0.3487222
0.2577457
0.3509788
0.2675775
0.2675743
0.3496307
0.3819981
0.2563282
0.349446
0.3819832
0.2799142
0.2799136
0.3487779
0.2583611
0.350805
0.2302888
0.3487826
0.2573402
0.3503985
0.2675825
0.2675929
0.3493964
0.3819851
0.2562822
0.3493558
0.3820004
0.2799134
0.2799148
0.3490419
0.2571569
0.3503003
0.2322045
0.3494904
0.2570975
0.3502708
0.2675756
0.2675936
0.3493525
0.3820024
0.2562792
0.3493491
0.3820075
0.2799149
0.2799157
0.3491964
0.2570617
0.3502354
0.2322702
0.3495182
0.2571554
0.350391
0.2675591
0.2675682
0.3493561
0.3820077
0.2562948
0.3493829
0.3820038
0.2799154
0.2799157
0.3499883
0.2574542
0.3508677
0.2280231
0.3505323
0.2578301
0.3514468
0.2675968
0.2676035
0.3494278
0.3820027
0.2564546
0.3495783
0.3819945
0.279915
0.2799148
0.3500447
0.2576001
0.3511518
0.2323078
0.3496247
0.2569007
0.3505774
0.2675992
0.2675975
0.3497944
0.381996
0.2577645
0.3502759
0.382026
0.2799142
0.2799147
0.3492627
0.2574581
0.350215
0.2575157
0.3492833
0.2584699
0.3506143
0.2675756
0.2675605
0.3505918
0.3820586
0.2585111
0.35064
0.3805327
0.2799171
0.2799179
0.3495165
0.257414
0.3511776
0.2322496
0.3493318
0.2590462
0.3513663
0.2669675
0.2673715
0.5494868
0.4506355
0.5752308
0.4500496
0.551043
0.4248385
0.5746203
0.7498562
0.6247797
0.7752776
0.6489491
0.7508925
0.6250031
0.7750011
0.9499803
0.8248139
0.9752297
0.8489632
0.950983
0.8249891
0.975015
1.149859
1.024745
1.175651
1.048979
1.150961
1.024984
1.174879
1.350071
1.22478
1.375293
1.249016
1.350989
1.22499
1.375021
1.550157
1.424869
1.550201
1.448881
1.550956
1.42495
1.575135
1.749985
1.649816
1.775181
1.649048
1.751127
1.624867
1.775057
1.94997
1.824742
1.975237
1.849034
1.950979
1.824993
1.975011
2.150196
2.024817
2.150158
2.048911
2.151036
2.024945
2.174643
0.2799427
0.2819767
0.7499183
0.6496483
0.7496366
0.6497358
0.7499529
0.6486982
0.7508211
0.9499841
0.8500796
0.9497819
0.849972
0.9499605
0.8489122
0.9509614
1.549983
1.4502
1.549805
1.450003
1.550002
1.448998
1.551004
1.949979
1.8502
1.949802
1.849999
1.95
1.848997
1.951004
2.149972
2.050199
2.149801
2.050042
2.150005
2.049001
2.151002
0.3216849
0.3749525
0.3736492
0.3231649
0.2661629
0.2681842
0.2673309
0.2664898
0.2670444
0.2673958
0.3114341
0.3876097
0.310731
0.2675409
0.2675492
0.2649918
0.2864997
0.2799554
0.2821552
0.265485
0.2653998
0.2652556
0.2662602
0.5121893
0.5876889
0.512284
0.4750198
0.4109881
0.4750468
0.4234471
0.4230087
0.4742724
0.4875166
0.5242769
0.5875001
0.5242904
0.5747626
0.5753805
0.5245988
0.5124747
0.6759834
0.612458
0.67598
0.6248562
0.6244701
0.6749191
0.6888308
0.7248508
0.7750233
0.7248172
0.7749868
0.7755343
0.7249937
0.7253028
0.9121775
0.9877405
0.9155775
0.8750558
0.8246781
0.8750721
0.8249724
0.8241547
0.875007
0.887367
0.9244933
0.9875196
0.9244803
0.9750078
0.9755178
0.9250674
0.9125267
1.112192
1.187705
1.112297
1.075505
1.012482
1.075512
1.025043
1.024518
1.074986
1.087519
1.124507
1.187518
1.124493
1.174977
1.175496
1.125028
1.112481
1.312193
1.387704
1.312295
1.275501
1.212482
1.27551
1.22503
1.22451
1.274981
1.28752
1.324508
1.387514
1.324494
1.374975
1.375493
1.325026
1.312484
1.512193
1.584418
1.51226
1.524505
1.587516
1.524496
1.574976
1.575494
1.525024
1.512481
1.675499
1.612478
1.675505
1.625027
1.624502
1.674978
1.687517
1.724505
1.787517
1.724492
1.774974
1.775495
1.725023
1.712478
1.912173
1.987724
1.915579
1.875496
1.812478
1.875503
1.825025
1.824501
1.874972
1.887519
1.924491
1.987512
1.924482
1.974947
1.97548
1.925011
1.91248
2.076008
2.01246
2.076009
2.024976
2.024524
2.074966
2.088832
2.124862
2.175025
2.124836
2.17499
2.175535
2.125024
2.125307
0.2654798
0.2667341
0.2654505
0.2666886
0.2653779
0.2670324
0.265376
0.2668192
0.2653532
0.2670817
0.2653616
0.2671057
0.2653475
0.2670794
0.2653582
0.2671087
0.2653459
0.267079
0.2653574
0.267108
0.2653455
0.267079
0.2653574
0.2671078
0.2653463
0.2670794
0.2653592
0.267108
0.2653555
0.2670829
0.2653701
0.2671109
0.2675949
0.2675769
0.2662778
0.2654948
0.266274
0.2654843
0.2799144
0.2799167
0.2662548
0.2654656
0.2654821
0.2662436
0.2675756
0.2675751
0.2662426
0.2654586
0.2662403
0.2654579
0.2799134
0.2799133
0.2662466
0.2654914
0.2654615
0.2662629
0.2675899
0.2675933
0.2667672
0.2656667
0.2663314
0.2666276
0.279915
0.2799147
0.2673768
0.2283702
0.2686524
0.2686432
0.2673817
0.2675713
0.2675754
0.2664234
0.2666731
0.2667851
0.2658956
0.2799154
0.2799157
0.2667872
0.2686876
0.2667026
0.2673909
0.2675754
0.2675904
0.2667816
0.2687122
0.2673914
0.2667024
0.2799149
0.2799156
0.2670671
0.2699506
0.2670665
0.2683146
0.2675956
0.2675924
0.2663604
0.2668849
0.2669885
0.2657635
0.2799139
0.279915
0.2667758
0.2688733
0.2667251
0.2674196
0.2675704