/*--------------------------------*- C++ -*----------------------------------*\
  =========                 |
  \\      /  F ield         | OpenFOAM: The Open Source CFD Toolbox
   \\    /   O peration     | Website:  https://openfoam.org
    \\  /    A nd           | Version:  7
     \\/     M anipulation  |
\*---------------------------------------------------------------------------*/
FoamFile
{
    version     2.0;
    format      ascii;
    class       volScalarField;
    location    "0.1";
    object      Cy;
}
// * * * * * * * * * * * * * * * * * * * * * * * * * * * * * * * * * * * * * //

dimensions      [0 1 0 0 0 0 0];

internalField   nonuniform List<scalar> 
89125
(
0.2568627
0.2550541
0.254809
0.2547805
0.2547757
0.2547746
0.2547743
0.2547742
0.4998248
0.4992622
0.4980079
0.4975524
0.497421
0.4973842
0.4973737
0.497371
0.4973712
0.6250176
0.6996846
0.6992538
0.6987489
0.6984244
0.6982954
0.698252
0.6982387
0.6982353
0.6982351
0.8249665
0.8997073
0.8993783
0.8991145
0.8989619
0.8988935
0.898869
0.8988615
0.8988595
0.8988588
1.024968
1.099909
1.099806
1.099727
1.099684
1.099668
1.099665
1.099665
1.099666
1.099664
1.224969
1.300053
1.300099
1.300139
1.300172
1.300197
1.300212
1.300219
1.300222
1.300219
1.424969
1.500207
1.500397
1.500542
1.500641
1.500698
1.500727
1.500738
1.500742
1.500739
1.624969
1.700461
1.700851
1.701116
1.701285
1.701373
1.701403
1.701406
1.701409
1.70141
1.82497
1.900684
1.901158
1.901448
1.901696
1.901808
1.901809
1.901765
1.901772
1.901785
2.024961
2.101537
2.101754
2.102034
2.102438
2.102544
2.102443
2.102069
2.102229
2.102239
2.224585
2.249751
2.246621
2.245769
2.246941
2.247056
2.246946
2.245931
2.245897
2.24645
2.416931
2.416909
2.413771
2.416924
2.416938
2.416937
2.415843
2.412169
2.416894
2.649023
2.648838
2.648331
2.649277
2.649339
2.649312
2.649306
2.649271
2.648631
2.899146
2.898166
2.897476
2.897162
2.897006
2.896927
2.896883
2.896814
2.896663
3.099092
3.098047
3.097326
3.096869
3.096631
3.096514
3.096454
3.096414
3.096382
3.299348
3.298623
3.29808
3.297728
3.297523
3.297413
3.297356
3.297329
3.297325
3.499656
3.499256
3.498928
3.498692
3.498541
3.498452
3.498405
3.498386
3.498389
3.699826
3.699614
3.699428
3.699281
3.69918
3.699116
3.699081
3.699067
3.69907
3.899912
3.899798
3.899694
3.899608
3.899544
3.899502
3.899477
3.899467
3.899469
4.099954
4.099894
4.099837
4.099787
4.099749
4.099722
4.099707
4.0997
4.099701
0.2585995
0.307327
0.3053079
0.3046851
0.3045501
0.3045187
0.3045092
0.3045064
0.3045064
0.4522681
0.4996882
0.4972091
0.4950303
0.49421
0.493946
0.4938613
0.4938336
0.4938253
0.4938249
0.7014279
0.6994386
0.6982213
0.6971252
0.6965437
0.696296
0.6962018
0.6961684
0.6961578
0.6961564
0.9003853
0.899677
0.8992013
0.8987465
0.8984712
0.8983422
0.898292
0.8982754
0.8982698
0.8982663
1.100011
1.099977
1.099935
1.099888
1.09987
1.099877
1.099892
1.099905
1.099908
1.099902
1.300065
1.300307
1.300632
1.300924
1.301141
1.301285
1.301372
1.301416
1.301431
1.301419
1.500193
1.500801
1.501609
1.502301
1.502772
1.503054
1.503206
1.503277
1.503299
1.503283
1.700407
1.701766
1.703418
1.704681
1.705439
1.705843
1.706035
1.706115
1.706139
1.706121
1.900501
1.903985
1.90728
1.909312
1.910315
1.910772
1.910949
1.911002
1.911019
1.911003
2.100583
2.110427
2.116173
2.118396
2.119268
2.119585
2.119656
2.119654
2.119645
2.119615
2.246825
2.262161
2.269988
2.271408
2.271991
2.27214
2.272111
2.272035
2.272017
2.271937
2.625716
2.674273
2.657385
2.651749
2.650393
2.650032
2.649911
2.649859
2.649811
2.649724
2.850344
2.886593
2.874389
2.868674
2.866203
2.865225
2.864826
2.864654
2.864562
2.864502
3.04985
3.093845
3.087334
3.082914
3.080534
3.079366
3.078811
3.078556
3.078454
3.078454
3.249903
3.29704
3.293685
3.29097
3.289218
3.288216
3.287682
3.287419
3.28732
3.287342
3.44995
3.498502
3.496727
3.495141
3.493986
3.493246
3.492815
3.492589
3.492502
3.492527
3.649972
3.69922
3.698265
3.697358
3.696642
3.696144
3.695833
3.695661
3.695593
3.695611
3.849983
3.899589
3.899073
3.898563
3.898137
3.897824
3.897617
3.897497
3.897448
3.897459
4.049989
4.099783
4.099507
4.099224
4.098979
4.098791
4.098662
4.098585
4.098552
4.098558
0.2584078
0.3065673
0.303933
0.3031005
0.302898
0.3028477
0.3028325
0.3028279
0.3028274
0.4522922
0.4996935
0.4967647
0.4939588
0.4927775
0.4923676
0.4922296
0.4921824
0.4921672
0.4921652
0.7024085
0.6995464
0.6979923
0.6964301
0.695542
0.6951503
0.6949955
0.6949384
0.6949188
0.6949146
0.9007583
0.8997329
0.8991584
0.8985077
0.8980795
0.8978806
0.8978047
0.8977802
0.8977708
0.8977624
1.100063
1.100119
1.100233
1.1003
1.100364
1.100435
1.100496
1.100535
1.100547
1.100531
1.30014
1.300673
1.301472
1.302232
1.302804
1.303178
1.303399
1.303513
1.30355
1.303522
1.500366
1.501576
1.503372
1.505024
1.506185
1.506879
1.507254
1.507435
1.507491
1.507452
1.70073
1.703311
1.706863
1.709833
1.711667
1.712635
1.713113
1.713327
1.713391
1.713344
1.900827
1.907049
1.913705
1.918233
1.920499
1.921536
1.921994
1.92218
1.922232
1.92219
2.100756
2.115963
2.12561
2.130517
2.132439
2.133169
2.133445
2.133547
2.133569
2.13354
2.244063
2.269943
2.329066
2.331768
2.332692
2.332945
2.333016
2.333035
2.333038
2.333029
2.626034
2.656899
2.626256
2.615486
2.612154
2.611235
2.61096
2.610861
2.610826
2.610826
2.898185
2.874825
2.850544
2.837625
2.831996
2.829806
2.828944
2.828597
2.828477
2.828494
3.098068
3.087549
3.073644
3.063165
3.057503
3.054774
3.053504
3.052938
3.052741
3.052791
3.298766
3.293804
3.286458
3.279882
3.275536
3.273103
3.271828
3.271212
3.27099
3.271057
3.499343
3.496799
3.492882
3.489064
3.486208
3.484396
3.483353
3.482813
3.48261
3.48267
3.699657
3.698309
3.696183
3.693999
3.692235
3.691016
3.69026
3.689846
3.689683
3.689726
3.89982
3.8991
3.897943
3.89671
3.895663
3.894897
3.894394
3.894106
3.893987
3.894013
4.099905
4.099523
4.098899
4.098217
4.097616
4.097158
4.096845
4.096659
4.096579
4.096593
0.2583435
0.3061646
0.3033671
0.3024111
0.3021768
0.3021179
0.3020996
0.3020936
0.3020923
0.4523063
0.4995249
0.4963212
0.4932102
0.4918487
0.4913603
0.4911913
0.4911317
0.4911111
0.4911065
0.7025776
0.6994821
0.6977513
0.6959331
0.6948465
0.6943555
0.6941578
0.6940831
0.6940556
0.6940472
0.9009097
0.8997555
0.8991566
0.8984102
0.8978783
0.897628
0.8975371
0.897509
0.8974968
0.8974818
1.100098
1.100251
1.100543
1.100768
1.100943
1.101094
1.101212
1.101283
1.101305
1.101278
1.300201
1.30099
1.302247
1.30352
1.30452
1.305179
1.305561
1.305755
1.305818
1.305774
1.500495
1.502203
1.504896
1.507574
1.509574
1.510779
1.511418
1.511723
1.511819
1.511757
1.700951
1.704445
1.709599
1.714278
1.717327
1.71894
1.719731
1.720088
1.720196
1.720125
1.901054
1.908916
1.917983
1.924657
1.928161
1.929782
1.93051
1.930818
1.930907
1.930846
2.101008
2.118132
2.130461
2.137527
2.140391
2.141501
2.141939
2.142109
2.142156
2.142122
2.243989
2.271468
2.331749
2.335895
2.337225
2.33761
2.337732
2.337774
2.337785
2.337777
2.625823
2.651248
2.615499
2.603831
2.599408
2.598142
2.597765
2.597631
2.59759
2.597601
2.898233
2.869333
2.837906
2.819324
2.811079
2.807857
2.806597
2.806096
2.805936
2.805981
3.097483
3.083438
3.063699
3.047725
3.038801
3.034533
3.032561
3.031692
3.0314
3.03149
3.298214
3.291345
3.280386
3.269747
3.262388
3.258316
3.25623
3.255236
3.254885
3.254994
3.499017
3.495411
3.489455
3.483225
3.478326
3.475205
3.473455
3.472564
3.472232
3.472328
3.699479
3.697543
3.694277
3.690726
3.687738
3.685653
3.684383
3.683696
3.683427
3.683494
3.899724
3.898682
3.896895
3.894892
3.893131
3.891828
3.890986
3.890509
3.890313
3.890353
4.099854
4.099299
4.098333
4.097225
4.096219
4.095444
4.094922
4.094614
4.094482
4.094503
0.2583286
0.3060915
0.3032638
0.302286
0.3020428
0.3019816
0.3019617
0.3019541
0.3019506
0.4522967
0.4994746
0.4962221
0.4930491
0.4916449
0.4911356
0.4909574
0.4908928
0.490867
0.4908569
0.7025697
0.6994602
0.6976881
0.6957944
0.694641
0.6941169
0.6939048
0.6938227
0.6937886
0.6937734
0.9009222
0.8997779
0.899198
0.8984407
0.89788
0.8976112
0.8975182
0.89749
0.8974746
0.8974527
1.100116
1.100335
1.100747
1.101098
1.101369
1.101588
1.10175
1.101844
1.101871
1.101837
1.300237
1.301169
1.302697
1.304308
1.305622
1.306506
1.307013
1.307265
1.307346
1.307291
1.500563
1.502533
1.505725
1.509055
1.511668
1.513276
1.514113
1.514506
1.51463
1.514555
1.701059
1.704986
1.710958
1.716625
1.720473
1.72254
1.723542
1.723993
1.724132
1.724046
1.901202
1.909676
1.919784
1.927516
1.931721
1.933687
1.934578
1.934958
1.93507
1.934999
2.101149
2.118814
2.132111
2.140011
2.143307
2.144609
2.145132
2.145338
2.145397
2.14536
2.244009
2.271799
2.332591
2.337121
2.338659
2.339106
2.33925
2.339302
2.339316
2.339307
2.624903
2.649949
2.612411
2.599734
2.594837
2.593406
2.592979
2.592827
2.592782
2.592796
2.898085
2.867241
2.833091
2.812189
2.802682
2.798922
2.797446
2.796859
2.796674
2.796731
3.097274
3.08161
3.059257
3.040533
3.029732
3.024549
3.022157
3.021107
3.020757
3.020868
3.297978
3.290113
3.277251
3.264204
3.254816
3.249574
3.24694
3.245699
3.245264
3.245397
3.498865
3.494666
3.487559
3.4798
3.473395
3.469233
3.466955
3.465819
3.465399
3.465516
3.699394
3.697116
3.693192
3.688776
3.684922
3.682168
3.680506
3.679627
3.679284
3.679366
3.899677
3.898445
3.89629
3.893805
3.891559
3.889866
3.888774
3.888164
3.887915
3.887963
4.099829
4.099171
4.098004
4.096632
4.095355
4.094356
4.093681
4.093289
4.093122
4.093147
0.2583335
0.3061845
0.3034189
0.3024724
0.3022413
0.3021835
0.3021604
0.3021447
0.302138
0.4523011
0.4995328
0.4964007
0.4933453
0.4920052
0.4915242
0.491357
0.4912927
0.4912572
0.4912289
0.7025966
0.6995226
0.6978552
0.6960689
0.6949855
0.6944973
0.6943005
0.6942206
0.6941784
0.6941492
0.9009587
0.8998213
0.8993056
0.8986225
0.8981186
0.8978815
0.8978032
0.8977784
0.8977585
0.8977284
1.100117
1.100357
1.100804
1.101198
1.101508
1.10175
1.101923
1.102021
1.102047
1.102007
1.300194
1.301177
1.302722
1.304357
1.305694
1.306593
1.307107
1.307362
1.307443
1.307386
1.500511
1.502533
1.505735
1.509078
1.511703
1.51332
1.514162
1.514557
1.514682
1.514606
1.701033
1.704985
1.710962
1.716637
1.72049
1.722562
1.723566
1.724019
1.724159
1.724074
1.901207
1.909674
1.919789
1.927525
1.93173
1.933697
1.93459
1.934971
1.935084
1.935015
2.101163
2.118819
2.132119
2.140017
2.143312
2.144614
2.145138
2.145346
2.145405
2.145369
2.244012
2.271843
2.332593
2.337123
2.338661
2.339108
2.339252
2.339304
2.339319
2.33931
2.625662
2.649938
2.612412
2.599732
2.594838
2.593407
2.592979
2.592828
2.592783
2.592796
2.898033
2.867274
2.833095
2.812189
2.802683
2.798924
2.797447
2.796861
2.796676
2.796734
3.097256
3.081609
3.059256
3.040534
3.029735
3.024552
3.02216
3.021111
3.020762
3.020873
3.297976
3.290112
3.277251
3.264205
3.254818
3.249576
3.246942
3.245702
3.245267
3.245402
3.498865
3.494666
3.48756
3.479801
3.473396
3.469234
3.466956
3.46582
3.465401
3.465519
3.699394
3.697116
3.693192
3.688776
3.684922
3.682169
3.680506
3.679628
3.679286
3.679368
3.899677
3.898445
3.89629
3.893805
3.891559
3.889867
3.888774
3.888165
3.887915
3.887964
4.099829
4.09917
4.098004
4.096632
4.095356
4.094356
4.093682
4.09329
4.093123
4.093148
0.2583529
0.3067083
0.3042067
0.303414
0.3032213
0.3031756
0.3031485
0.3030552
0.3030557
0.4523007
0.499757
0.4970743
0.4944455
0.4933172
0.4929225
0.4927903
0.4927314
0.4926715
0.4925813
0.7028272
0.699686
0.6983153
0.6968543
0.695986
0.695602
0.6954501
0.6953803
0.6953235
0.695264
0.9013386
0.8998931
0.8994824
0.8989509
0.898575
0.8984107
0.8983592
0.898339
0.8983114
0.8982701
1.100095
1.100312
1.100702
1.101046
1.101316
1.101525
1.101671
1.10175
1.101766
1.101727
1.299638
1.300994
1.302309
1.303651
1.304707
1.305402
1.305802
1.306003
1.306065
1.306016
1.49991
1.50219
1.504916
1.507633
1.509664
1.510889
1.511539
1.51185
1.511948
1.511884
1.700703
1.704431
1.709609
1.714307
1.71737
1.718994
1.719791
1.720153
1.720265
1.720195
1.901183
1.908909
1.917998
1.92468
1.928187
1.929811
1.930545
1.930858
1.930951
1.930894
2.101217
2.118161
2.13049
2.137545
2.140409
2.14152
2.141962
2.142136
2.142185
2.142158
2.24402
2.271706
2.331754
2.335902
2.337233
2.337618
2.337741
2.337785
2.337797
2.337792
2.624567
2.651241
2.615499
2.603829
2.599408
2.598143
2.597766
2.597633
2.597593
2.597605
2.898091
2.869352
2.83791
2.819324
2.811082
2.80786
2.8066
2.806101
2.805944
2.805993
3.097457
3.083434
3.063699
3.047729
3.038807
3.034538
3.032567
3.0317
3.031411
3.031504
3.298212
3.291343
3.280387
3.269751
3.262393
3.258321
3.256235
3.255243
3.254894
3.255006
3.499016
3.495411
3.489456
3.483228
3.478329
3.475209
3.473458
3.472568
3.472238
3.472334
3.699479
3.697543
3.694278
3.690727
3.68774
3.685655
3.684385
3.683699
3.68343
3.683498
3.899725
3.898681
3.896894
3.894893
3.893132
3.89183
3.890988
3.89051
3.890315
3.890355
4.099855
4.099298
4.098332
4.097225
4.09622
4.095446
4.094923
4.094616
4.094484
4.094505
0.2585417
0.3081887
0.3067218
0.306167
0.3060445
0.3060317
0.3060258
0.3058893
0.3050746
0.4520766
0.5002339
0.4987543
0.4971254
0.4963954
0.4961558
0.4961003
0.4960575
0.4959617
0.4957369
0.7035907
0.6998947
0.6990021
0.6980609
0.697518
0.6972892
0.6972072
0.6971542
0.6970747
0.696971
0.9026806
0.8999898
0.8996487
0.8992893
0.8990668
0.8989814
0.8989576
0.8989398
0.8989014
0.8988503
1.100052
1.100199
1.100448
1.100664
1.100841
1.10098
1.101073
1.10112
1.101121
1.101087
1.297929
1.300605
1.301535
1.30239
1.303026
1.303439
1.30368
1.3038
1.303835
1.303801
1.497998
1.501501
1.503381
1.50509
1.506287
1.507001
1.507388
1.507577
1.507636
1.507595
1.700352
1.703255
1.706864
1.709866
1.711716
1.712694
1.713181
1.713404
1.713475
1.713432
1.901033
1.90698
1.913713
1.91826
1.920531
1.921572
1.92204
1.92224
1.922302
1.922273
2.101662
2.116007
2.125653
2.130549
2.132477
2.133213
2.133507
2.133615
2.133638
2.133644
2.244569
2.271008
2.32907
2.331784
2.332718
2.332975
2.333053
2.333077
2.333077
2.333094
2.651941
2.656887
2.62626
2.615493
2.612158
2.611237
2.610961
2.610864
2.610835
2.610843
2.898119
2.874798
2.850554
2.83764
2.832006
2.829811
2.82895
2.828606
2.828497
2.828528
3.098059
3.087546
3.073652
3.063178
3.057513
3.054781
3.053511
3.052949
3.05276
3.05282
3.298769
3.293804
3.286463
3.27989
3.275543
3.273109
3.271834
3.27122
3.271003
3.271075
3.499354
3.496802
3.492886
3.489069
3.486212
3.4844
3.483357
3.482818
3.482617
3.482679
3.699656
3.69831
3.696184
3.694001
3.692237
3.691018
3.690263
3.689849
3.689687
3.68973
3.899809
3.899095
3.897941
3.896711
3.895665
3.894899
3.894396
3.894108
3.89399
3.894015
4.099908
4.099517
4.098897
4.098217
4.097618
4.09716
4.096847
4.096661
4.096581
4.096594
0.2588953
0.2580145
0.2566932
0.2563015
0.2562753
0.2562707
0.2564085
0.2562878
0.2561776
0.4515867
0.5002688
0.5000302
0.49944
0.4991272
0.4990484
0.4991142
0.4991242
0.498906
0.4987218
0.6531333
0.6997044
0.6991941
0.6987712
0.6985664
0.6984966
0.6984921
0.698457
0.6983402
0.6982228
0.9005669
0.8999486
0.8996301
0.8994443
0.899366
0.8993445
0.8993429
0.8993264
0.8992771
0.8992269
1.099929
1.100059
1.100122
1.10019
1.100263
1.100324
1.100364
1.100379
1.100369
1.100344
1.299636
1.300187
1.30068
1.301046
1.301308
1.301479
1.301578
1.301627
1.301638
1.30162
1.446634
1.500699
1.50161
1.50235
1.502843
1.503136
1.503295
1.503373
1.503398
1.503381
1.648529
1.701639
1.703416
1.704709
1.705473
1.705876
1.706075
1.70617
1.706205
1.706193
1.849092
1.903731
1.907254
1.909339
1.910335
1.910781
1.910977
1.911064
1.911101
1.911113
2.04858
2.110239
2.116164
2.118445
2.119271
2.119562
2.119758
2.119806
2.119771
2.119868
2.246187
2.26724
2.279585
2.282315
2.283044
2.283247
2.283346
2.28345
2.283292
2.283376
2.626266
2.67425
2.657462
2.651825
2.650413
2.650036
2.649913
2.649866
2.649846
2.649837
2.851772
2.886596
2.874452
2.868746
2.866233
2.865235
2.864833
2.864669
2.864611
2.864615
3.04892
3.093851
3.08736
3.082945
3.080552
3.079374
3.078818
3.078569
3.078483
3.078506
3.248846
3.297037
3.293694
3.290983
3.289227
3.288221
3.287687
3.287427
3.287334
3.287365
3.449038
3.498512
3.496731
3.495146
3.49399
3.493249
3.492817
3.492593
3.492509
3.492536
3.649123
3.699223
3.698267
3.69736
3.696644
3.696146
3.695835
3.695663
3.695596
3.695615
3.848681
3.899574
3.899071
3.898563
3.898138
3.897825
3.897618
3.897499
3.89745
3.897461
4.048968
4.099762
4.099502
4.099224
4.098981
4.098794
4.098665
4.098587
4.098554
4.098559
0.2343608
0.2341694
0.233131
0.2339658
0.2578847
0.2337695
0.2583402
0.2337523
0.2343011
0.42601
0.4994159
0.49998
0.5000707
0.5006514
0.5005982
0.5006955
0.5009975
0.5001029
0.5001129
0.6252033
0.6995772
0.6996636
0.6997368
0.6998219
0.6998547
0.6998878
0.699867
0.6996773
0.6995442
0.8517237
0.899741
0.8995875
0.8995342
0.8995458
0.8995586
0.8995671
0.8995532
0.8994968
0.8994538
1.048976
1.10005
1.099928
1.099904
1.099917
1.099933
1.099943
1.099942
1.099927
1.099912
1.248321
1.300067
1.300141
1.300206
1.300258
1.300293
1.300313
1.300321
1.300321
1.300315
1.447444
1.500183
1.500413
1.50057
1.500672
1.500731
1.500761
1.500776
1.500783
1.500781
1.623198
1.700586
1.700888
1.701144
1.701301
1.701378
1.701407
1.701426
1.701445
1.70145
1.824442
1.900583
1.901157
1.901493
1.901708
1.901782
1.901778
1.901796
1.901847
1.901882
2.024442
2.101079
2.101761
2.102209
2.102377
2.102338
2.10218
2.102199
2.10244
2.102435
2.223955
2.254818
2.258102
2.25883
2.25919
2.258061
2.258904
2.259604
2.259258
2.258874
2.417899
2.418972
2.418646
2.419145
2.424067
2.418981
2.418071
2.419162
2.418797
2.625494
2.644042
2.64167
2.6409
2.640786
2.640744
2.640721
2.640715
2.640701
2.640632
2.824345
2.899155
2.8983
2.897611
2.897202
2.897015
2.896934
2.8969
2.89688
2.896863
3.024453
3.099102
3.098081
3.097366
3.096888
3.096639
3.096519
3.096465
3.096444
3.096444
3.224455
3.299333
3.298633
3.298093
3.297736
3.297527
3.297416
3.297361
3.297341
3.297346
3.42463
3.499643
3.49926
3.498932
3.498695
3.498543
3.498454
3.498407
3.49839
3.498395
3.650163
3.69983
3.699615
3.699429
3.699282
3.699181
3.699117
3.699082
3.699068
3.699072
3.823186
3.899919
3.899797
3.899694
3.899608
3.899544
3.899502
3.899478
3.899468
3.89947
4.024589
4.099953
4.099892
4.099837
4.099788
4.09975
4.099724
4.099707
4.0997
4.099702
0.3489055
0.2334516
0.3779655
0.3480688
2.416928
2.574337
2.415584
2.548467
2.416925
2.574068
2.574968
2.418767
2.419149
2.54699
2.546179
2.413771
2.574652
2.573088
2.41914
2.41855
2.545469
2.545037
2.416908
2.573643
2.574992
2.418551
2.419161
2.54501
2.545197
2.416938
2.575097
2.575143
2.419193
2.419207
2.545278
2.54529
2.416937
2.575144
2.57514
2.419207
2.419206
2.54529
2.545286
2.416474
2.575119
2.575087
2.419203
2.419027
2.545279
2.545276
2.410361
2.575098
2.575096
2.418762
2.418168
2.545278
2.545277
2.416894
2.575099
2.574958
2.418493
2.419148
2.545266
2.545216
2.413771
2.574617
2.573053
2.419148
2.418552
2.545027
2.54483
2.648841
2.752274
2.625492
2.646143
2.775892
2.748351
2.85154
2.951507
2.824577
2.849112
2.97553
2.949404
3.049143
3.150951
3.024453
3.049579
3.175525
3.149688
3.248991
3.350949
3.224454
3.249806
3.37553
3.34983
3.449002
3.550964
3.424459
3.449917
3.575533
3.549901
3.649013
3.750971
3.624462
3.649972
3.775535
3.749936
3.849018
3.950975
3.824463
3.849999
3.975535
3.949954
4.049021
4.150976
4.024464
4.050013
4.175536
4.149963
0.2341882
0.3774388
0.3494549
0.2337144
0.3790123
0.3495966
2.418748
2.547337
2.419127
2.546554
0.2337064
0.3790179
0.3496015
0.2336981
0.379035
0.349582
2.41915
2.546057
2.419169
2.545827
0.2336997
0.3790355
0.3495824
0.2336935
0.3790314
0.3495568
2.419169
2.545663
2.419171
2.574666
2.54549
0.2336951
0.3790249
0.3495458
0.2336939
0.3790311
0.3495501
2.419171
2.545585
2.419171
2.574649
2.545508
0.2336961
0.3790348
0.3495651
0.2336947
0.3790314
0.3495615
2.419171
2.574603
2.545519
2.419171
2.57416
2.545703
0.2336972
0.3790217
0.3495688
0.2337047
0.3789948
0.3495824
2.419171
2.545703
2.419169
2.576059
2.545524
0.233705
0.3789985
0.3496165
0.2337244
0.3789901
0.3496639
2.419169
2.575783
2.545392
2.419149
2.575787
2.545621
0.233733
0.378984
0.3496648
0.2342239
0.3771397
0.3494236
2.419126
2.576057
2.546329
2.418749
2.574636
2.547178
0.2334279
0.3775422
0.3478416
0.3484159
0.2338678
0.3492252
0.3490699
0.3473303
0.3495322
0.2318761
0.3495938
0.3499737
0.350078
0.3500437
0.2338004
0.3492785
0.3488463
0.3497159
0.350052
0.2579444
0.3497461
0.3497702
0.2324572
0.3518035
0.3537469
0.2339484
0.3495977
0.349646
0.2305909
0.3529751
0.351337
0.2342736
0.3493055
0.3502994
0.230779
0.3509158
0.3531047
0.23402
0.3506148
0.3502358
0.232912
0.3547373
0.353072
0.2338644
0.3488584
0.3487761
0.3504726
0.3500099
0.2571279
0.3501918
0.3499503
0.3512681
0.3519926
0.448939
0.5758276
0.5494937
0.4504018
0.5509824
0.6497268
0.7531413
0.7498967
0.648732
0.7758732
0.7507618
0.8498863
0.9514268
0.9499627
0.8251116
0.8489
0.9750352
0.9509719
1.04998
1.15075
1.150032
1.024957
1.048996
1.175212
1.151094
1.250017
1.348631
1.350055
1.249083
1.350936
1.450048
1.549379
1.549949
1.424763
1.448932
1.57412
1.551039
1.650167
1.775371
1.750166
1.624791
1.649288
1.751103
1.850193
1.976034
1.950178
1.849049
1.950815
2.050756
2.175361
2.151445
2.048542
2.148434
2.252161
2.381214
2.247888
2.378347
2.41525
2.574653
2.548432
2.416172
2.574693
2.418718
2.546911
2.546032
2.415637
2.415865
2.574012
2.573994
2.418643
2.545607
2.545387
2.416475
2.416432
2.574763
2.574671
2.41916
2.54532
2.545273
2.416432
2.41693
2.575653
2.575122
2.421134
2.545288
2.545283
2.416935
2.416564
2.575156
2.575171
2.418927
2.545282
2.54528
2.416348
2.41686
2.575168
2.575133
2.418071
2.545275
2.545268
2.416766
2.411571
2.575125
2.575157
2.419036
2.545274
2.545274
2.411571
2.416765
2.575151
2.575151
2.419092
2.545267
2.545257
2.416859
2.416851
2.575149
2.575076
2.417542
2.545209
2.545228
2.416733
2.415513
2.574971
2.574664
2.646252
2.775739
2.748354
2.649197
2.752314
2.849161
2.975529
2.949406
2.851598
2.951509
3.049579
3.175525
3.149689
3.049143
3.150952
3.249803
3.375759
3.349772
3.248989
3.350888
3.4499
3.576685
3.549886
3.448974
3.550931
3.650055
3.749799
3.749854
3.648993
3.750992
3.85006
3.975722
3.949914
3.849108
3.950932
4.050007
4.175463
4.149969
4.049011
4.151032
0.2664058
0.2685024
0.2319561
0.3498211
0.3529521
0.2344494
0.2563362
0.350128
0.3492686
0.2556958
0.3537249
0.3521423
0.2566401
0.2544215
0.3469474
0.3449182
0.2548681
0.3511388
0.3507493
0.2537576
0.253497
0.3438782
0.3434184
0.2547883
0.3506041
0.3505406
0.2534252
0.2533952
0.3432393
0.3431546
0.2547773
0.3505189
0.3505086
0.2533856
0.2533818
0.3431247
0.3431073
0.254775
0.350505
0.350503
0.2533801
0.2533792
0.3431017
0.3430973
0.2547744
0.3505022
0.3505018
0.2533788
0.2533785
0.3430961
0.3430948
0.2547742
0.3505016
0.3505015
0.2533784
0.2533783
0.3430945
0.3430942
0.2547743
0.3505015
0.3505016
0.2533783
0.2533784
0.3430943
0.3430946
0.4505303
0.5752644
0.5510911
0.4266878
0.4490993
0.5529462
0.5496129
0.6489193
0.7750354
0.750898
0.6518554
0.6497016
0.751662
0.7498522
0.8489268
0.9750303
0.9509648
0.8491843
0.8498931
0.9510314
0.9499511
1.048973
1.175031
1.150996
1.048994
1.049967
1.151008
1.149996
1.248993
1.375031
1.351009
1.24899
1.250007
1.351016
1.350031
1.449004
1.575031
1.551023
1.448998
1.450044
1.551026
1.550082
1.649023
1.775032
1.751041
1.649011
1.650108
1.751035
1.750195
1.849038
1.975035
1.950927
1.84901
1.850262
1.950878
1.950501
2.048577
2.174956
2.148656
2.048439
2.050767
2.148167
2.15164
2.248641
2.380073
2.246415
2.252753
2.381981
2.247237
2.380101
2.380095
2.255634
2.257641
2.385673
2.389054
2.245742
2.379924
2.373653
2.258319
2.258257
2.389104
2.388407
2.246555
2.373654
2.379935
2.258437
2.259011
2.388416
2.389275
2.247039
2.380105
2.380167
2.259347
2.259465
2.38936
2.389414
2.247041
2.380168
2.380162
2.259495
2.259485
2.389416
2.38941
2.246579
2.380149
2.37913
2.259391
2.259094
2.389398
2.389084
2.246445
2.37212
2.379863
2.258608
2.258965
2.388522
2.389229
2.245772
2.37987
2.373654
2.258976
2.258596
2.389229
2.388439
2.416532
2.417094
2.416939
2.415434
2.415497
2.416485
2.415463
2.413061
2.416937
2.415506
2.415529
2.416939
2.415531
2.415531
2.416924
2.415529
2.415506
2.416484
2.415443
2.413061
2.674558
2.624928
2.623823
2.675645
2.649223
2.751443
2.753923
2.644175
2.642672
2.746627
2.744649
2.648053
2.754089
2.753954
2.641447
2.640576
2.743486
2.742599
2.649027
2.753972
2.754162
2.64044
2.640637
2.742284
2.74215
2.649328
2.754293
2.754335
2.640732
2.640747
2.742148
2.742101
2.649337
2.754347
2.754343
2.640745
2.640735
2.74208
2.742048
2.649296
2.754334
2.754326
2.640722
2.640713
2.742029
2.74201
2.649299
2.754323
2.75431
2.64071
2.6407
2.741999
2.741979
2.649136
2.754272
2.754162
2.640668
2.640569
2.741935
2.741842
2.647885
2.753932
2.753698
2.640304
2.639958
2.741665
2.7415
2.874956
2.824776
2.82491
2.875817
3.074983
3.02439
3.024973
3.075458
3.274992
3.224366
3.224987
3.275453
3.474996
3.424369
3.424993
3.475455
3.674998
3.624369
3.624995
3.675455
3.874999
3.824369
3.824996
3.875455
4.075
4.02437
4.024998
4.075455
0.2675417
0.2674962
2.254957
2.385573
2.244316
2.25692
2.388925
2.415443
2.415499
2.644649
2.750792
2.747365
2.626044
2.643314
2.753671
2.745776
0.2675625
0.2675625
2.257829
2.389052
2.243966
2.258248
2.389193
2.415523
2.415527
2.642362
2.752689
2.744771
2.626041
2.641797
2.755293
2.743934
0.267592
0.2675905
2.258414
2.389201
2.244001
2.258512
2.38922
2.415528
2.415528
2.641516
2.755609
2.743565
2.625743
2.641402
2.755695
2.743286
0.2675527
0.2675662
2.258548
2.389221
2.244013
2.258567
2.389224
2.415528
2.415528
2.641306
2.755712
2.743159
2.625718
2.641287
2.755663
2.743089
0.2675954
0.2675723
2.258566
2.389224
2.244018
2.258545
2.389221
2.415528
2.415528
2.641245
2.755501
2.743107
2.62305
2.641185
2.75522
2.74326
0.267539
0.2675731
2.258506
2.38922
2.244183
2.258407
2.3892
2.415528
2.415528
2.641299
2.755339
2.743312
2.626299
2.641422
2.754937
2.74347
0.2675778
0.2675507
2.258218
2.389192
2.247199
2.257734
2.389046
2.415527
2.415527
2.6416
2.755657
2.743654
2.651909
2.642166
2.753032
2.744494
0.2675887
0.2676163
2.256629
2.388912
2.249006
2.25476
2.385466
2.415521
2.415503
2.643221
2.753017
2.745681
2.62543
2.644637
2.750629
2.747346
0.2669416
0.2673223
2.256786
2.356056
2.38844
2.248141
2.24595
2.376964
2.377322
2.258559
2.388817
2.388573
2.246469
2.246569
2.37907
2.378843
2.259188
2.388594
2.389286
2.246689
2.246906
2.378858
2.380092
2.258507
2.389268
2.387482
2.24694
2.246666
2.380143
2.379236
2.258804
2.387586
2.388904
2.246452
2.246587
2.378308
2.379873
2.259592
2.389037
2.359698
2.245923
2.244742
2.379068
2.370798
2.258988
2.359706
2.389147
2.244746
2.24595
2.370798
2.379077
2.259242
2.389297
2.389189
2.246735
2.246788
2.379908
2.379912
2.259761
2.388812
2.359062
2.246221
2.245731
2.37906
2.376756
2.415435
2.416113
2.641162
2.743659
2.742937
2.649237
2.649238
2.754302
2.754418
2.640816
2.742598
2.742334
2.649226
2.649285
2.754392
2.754377
2.640714
2.742033
2.742018
2.649315
2.649314
2.75434
2.754338
2.640683
2.741993
2.741978
2.649304
2.649276
2.754326
2.754307
2.6406
2.741953
2.741938
2.649173
2.649151
2.754278
2.754263
0.2661654
0.2681405
0.2672818
0.2665187
0.3216741
0.3749693
0.3736372
0.3232508
0.2669838
0.267333
2.416758
2.415434
2.416194
2.523096
2.574072
2.572311
2.510219
2.415448
2.416213
2.523447
2.571956
2.572125
2.52292
2.416939
2.415499
2.415503
2.521918
2.509909
2.574824
2.56985
2.521648
2.570021
2.510605
2.521974
2.510611
2.575018
2.569918
2.521942
2.570077
2.510635
2.521345
2.510559
2.573693
2.569652
2.521815
2.569057
2.50979
2.521212
2.522243
2.573607
2.567626
2.520809
2.568106
2.522619
2.416485
2.415468
2.413063
2.521345
2.522632
2.573708
2.568115
2.521207
2.568987
2.510261
2.521804
2.510646
2.574663
2.5698
2.521914
2.569583
2.5105
2.416938
2.415531
2.41553
2.521954
2.510663
2.57513
2.569899
2.521946
2.569941
2.510658
2.521958
2.510664
2.575139
2.56995
2.521961
2.569953
2.510658
2.416939
2.41553
2.415531
2.521959
2.510664
2.575147
2.569951
2.521962
2.56996
2.51066
2.521958
2.510656
2.57515
2.569943
2.521955
2.569958
2.510661
2.416908
2.413056
2.415468
2.521965
2.510604
2.575104
2.569912
2.521958
2.569909
2.510625
2.521957
2.510617
2.575118
2.569922
2.521955
2.569929
2.510648
2.521959
2.510608
2.575116
2.569923
2.521958
2.569929
2.510644
2.416474
2.415443
2.413054
2.521951
2.510621
2.575107
2.569919
2.521954
2.569908
2.510649
2.521942
2.510592
2.575075
2.569753
2.521913
2.569862
2.510649
2.521324
2.510541
2.573663
2.569504
2.521786
2.568961
2.50979
2.521196
2.522233
2.573581
2.567557
2.520794
2.568026
2.522611
2.724759
2.775883
2.774886
2.724793
2.924962
2.975676
2.974977
2.924773
3.124985
3.175626
3.174991
3.124544
3.324993
3.375629
3.374997
3.324543
3.524997
3.57563
3.575
3.524544
3.724999
3.77563
3.775001
3.724544
3.925
3.97563
3.975002
3.924545
4.125
4.17563
4.175002
4.124545
0.2675552
0.2675612
2.522749
2.571908
2.522811
2.571821
2.415522
2.415504
2.522735
2.571716
2.571785
2.522723
0.2675704
0.2675947
2.522713
2.571689
2.522718
2.57166
2.415528
2.415527
2.522712
2.571619
2.571645
2.522709
0.2675791
0.2675874
2.522606
2.571591
2.522702
2.571538
2.415528
2.415528
2.52241
2.574666
2.571212
2.571221
2.522409
0.2675627
0.267561
2.522696
2.57152
2.522606
2.571557
2.415528
2.415528
2.522608
2.571188
2.571528
2.522405
0.2675782
0.2675811
2.522625
2.57118
2.522408
2.571505
2.415528
2.415528
2.522521
2.571706
2.571593
2.522012
0.2675116
0.2675224
2.52272
2.571629
2.522526
2.571547
2.415528
2.415528
2.52261
2.571095
2.571515
2.522381
0.2676064
0.2676004
2.522242
2.570715
2.577078
2.522263
2.570656
2.415522
2.415526
2.522246
2.577077
2.570798
2.570676
2.522277
0.2675669
0.2675
2.522631
2.571214
2.522401
2.57168
2.415439
2.415497
2.52265
2.571571
2.571742
2.522528
0.2663432
0.2684034
0.266004
0.2673752
0.2667613
0.2662873
0.3215853
0.3749139
0.3737292
0.3231236
0.2686845
0.2283808
0.2677885
0.2283971
0.2687383
0.2678448
0.2668556
0.2676558
0.2668675
0.2674608
0.2678459
0.2290333
0.2691881
0.2700569
0.2683066
0.2655142
0.2678103
0.2667846
0.2671755
0.2657299
0.2678652
0.2668359
0.2672858
0.2673933
0.2680456
0.2671373
0.2685507
0.2706183
0.2316548
0.2760432
0.2289728
0.2738698
0.2708133
0.2753877
0.2333984
0.232915
0.2784534
0.2333953
0.2754031
0.2784894
0.2738385
0.2289526
0.2307806
0.2707575
0.2316478
0.2705634
0.2760792
0.2658541
0.2684022
0.2671454
0.2674731
0.2657868
0.2677413
0.2669033
0.2673279
0.4747379
0.4242607