/*--------------------------------*- C++ -*----------------------------------*\
  =========                 |
  \\      /  F ield         | OpenFOAM: The Open Source CFD Toolbox
   \\    /   O peration     | Website:  https://openfoam.org
    \\  /    A nd           | Version:  7
     \\/     M anipulation  |
\*---------------------------------------------------------------------------*/
FoamFile
{
    version     2.0;
    format      ascii;
    class       volScalarField;
    location    "0.1";
    object      Cz;
}
// * * * * * * * * * * * * * * * * * * * * * * * * * * * * * * * * * * * * * //

dimensions      [0 1 0 0 0 0 0];

internalField   nonuniform List<scalar> 
89125
(
0.04458644
0.04242501
0.04206553
0.04201323
0.04200689
0.04200589
0.04200556
0.04200544
0.09658318
0.09351285
0.09207291
0.09168218
0.09157641
0.09154382
0.09153328
0.09153043
0.09153193
0.02087564
0.09470806
0.0909884
0.08972929
0.08935601
0.08923975
0.0891979
0.08918279
0.08917888
0.08918182
0.02086627
0.09407197
0.09013567
0.08876862
0.08837373
0.08824665
0.0881988
0.08818079
0.08817628
0.0881804
0.02086713
0.09392678
0.08991962
0.08851306
0.08809921
0.08796391
0.08791196
0.08789212
0.08788721
0.08789209
0.02086808
0.09390564
0.0898924
0.08848251
0.0880668
0.08793034
0.08787782
0.08785762
0.08785265
0.08785789
0.02086816
0.09395237
0.08998209
0.08860038
0.08820078
0.08807213
0.08802292
0.08800392
0.08799933
0.0880044
0.0208677
0.09415947
0.09034572
0.0890537
0.08869802
0.08858787
0.08854511
0.08852764
0.08852391
0.08852909
0.02086662
0.09499948
0.09168902
0.09065845
0.09038949
0.09030753
0.09027097
0.09025227
0.09024717
0.09025494
0.02086874
0.09778589
0.09612824
0.09550674
0.09538426
0.0953448
0.09526372
0.09528894
0.09520048
0.09526267
0.02092067
0.04677235
0.04521597
0.04487301
0.04509607
0.04511928
0.04508383
0.04434721
0.04430731
0.04496521
0.01025936
0.01023722
0.02136872
0.01025113
0.01025756
0.01025772
0.00931933
0.02053058
0.01023053
0.04718866
0.04638902
0.046189
0.04650462
0.04652174
0.04653089
0.04652939
0.04651834
0.04629858
0.09721206
0.09481191
0.09408207
0.09392247
0.09386726
0.0938417
0.09382989
0.09381728
0.0937894
0.09563677
0.09172878
0.09058699
0.09029542
0.09020798
0.09017424
0.09016022
0.09015435
0.09015274
0.0949635
0.09057315
0.08915527
0.08877019
0.08865156
0.08860708
0.08858982
0.08858484
0.08858783
0.09478214
0.09022856
0.08870945
0.08827406
0.0881345
0.08808163
0.08806131
0.08805578
0.08805977
0.09473115
0.0901231
0.08856538
0.08810724
0.08795625
0.08789805
0.08787576
0.08786971
0.08787412
0.09471977
0.09009093
0.08851804
0.08805022
0.08789394
0.08783324
0.08780983
0.08780333
0.08780782
0.09472053
0.09008098
0.08850123
0.08802874
0.08786954
0.08780736
0.08778311
0.08777641
0.08778102
0.2484469
0.2932943
0.2913424
0.2906772
0.2904463
0.2903771
0.2903581
0.2903536
0.2903544
0.2491001
0.2927956
0.2882091
0.2858781
0.2850001
0.2846886
0.2845777
0.2845389
0.2845289
0.2845339
0.2971862
0.2900662
0.2848489
0.2823876
0.2814202
0.2810406
0.2808898
0.2808322
0.2808171
0.2808282
0.2974343
0.2890315
0.2832789
0.2805001
0.2793961
0.2789517
0.2787692
0.2786973
0.2786787
0.2786953
0.2974644
0.288704
0.2827504
0.2798219
0.2786349
0.2781489
0.2779466
0.2778662
0.2778456
0.2778657
0.2974368
0.2886432
0.2826706
0.2797255
0.2785278
0.2780359
0.2778305
0.2777488
0.2777282
0.2777493
0.2974632
0.288773
0.282941
0.2801067
0.2789752
0.2785175
0.2783276
0.278252
0.2782334
0.2782539
0.2975723
0.2892431
0.2838463
0.2813195
0.2803526
0.2799725
0.2798151
0.2797511
0.2797366
0.2797561
0.29774
0.2906401
0.2863924
0.2845292
0.2838516
0.2835909
0.283474
0.2834174
0.2834092
0.2834323
0.297902
0.2944
0.2922914
0.2913523
0.2910458
0.290922
0.2908249
0.2907213
0.2907389
0.2907892
0.2501181
0.2479474
0.2475524
0.2472724
0.2474037
0.247438
0.247375
0.2470554
0.2470485
0.2472394
0.2253236
0.3059852
0.3100342
0.3123449
0.3125467
0.3124408
0.3123752
0.3123522
0.3123209
0.3121944
0.2516492
0.2956319
0.2933608
0.2925754
0.2923276
0.2921802
0.2920979
0.2920601
0.2920349
0.2920024
0.252175
0.2922287
0.2871535
0.2851601
0.2844679
0.2841957
0.2840775
0.2840268
0.2840084
0.2840113
0.2521726
0.2909192
0.2845628
0.2817923
0.2807639
0.2803641
0.2801995
0.2801327
0.2801134
0.2801263
0.2521587
0.2904632
0.2836144
0.2804816
0.2792601
0.2787725
0.2785711
0.2784905
0.2784683
0.278485
0.2521556
0.2903091
0.2832759
0.2799904
0.2786751
0.2781389
0.2779155
0.2778257
0.2778012
0.2778195
0.2521579
0.2902708
0.2831687
0.2798236
0.2784691
0.2779105
0.2776762
0.2775817
0.2775559
0.2775745
0.2521653
0.2902692
0.2831349
0.2797636
0.2783905
0.2778206
0.2775799
0.2774825
0.2774557
0.277475
0.4494469
0.4972148
0.4958059
0.4952161
0.4949542
0.4948608
0.494832
0.4948247
0.4948259
0.4497357
0.4970271
0.4941746
0.4922442
0.4913125
0.4909125
0.4907522
0.4906924
0.490676
0.4906839
0.4988216
0.4951966
0.4914979
0.4890348
0.4878213
0.487276
0.4870401
0.4869453
0.4869197
0.4869386
0.4985779
0.4942042
0.4898816
0.4868689
0.4853356
0.4846431
0.4843381
0.484213
0.4841801
0.4842094
0.4985392
0.4938129
0.4892077
0.4859018
0.4841597
0.4833658
0.4830149
0.4828706
0.4828332
0.4828693
0.4985031
0.4937293
0.4890908
0.4857465
0.4839703
0.4831571
0.4827978
0.4826503
0.4826128
0.4826513
0.4985359
0.4938819
0.4894379
0.4862835
0.4846387
0.4838962
0.4835697
0.483436
0.483403
0.4834398
0.4986604
0.494378
0.4904885
0.4878518
0.4865352
0.4859507
0.4856943
0.4855888
0.4855639
0.4855963
0.4988567
0.4955406
0.4927731
0.4910059
0.4901631
0.4897939
0.4896265
0.4895531
0.4895385
0.4895664
0.4993138
0.4976691
0.496353
0.4956301
0.4953158
0.4951659
0.4950805
0.4950285
0.495026
0.4950513
0.4488864
0.4493884
0.5008888
0.5018336
0.502034
0.5020293
0.5019976
0.5019623
0.501969
0.5019837
0.4250296
0.5059355
0.5140723
0.5153505
0.515717
0.5156326
0.5155408
0.5155095
0.5155062
0.5155076
0.5010839
0.498936
0.4978945
0.4973332
0.4970869
0.4968926
0.4967731
0.4967192
0.4967025
0.4967066
0.5019006
0.4970312
0.4939148
0.4921149
0.4912528
0.4908581
0.4906716
0.4905898
0.4905652
0.4905803
0.5019304
0.4959729
0.4914535
0.4885963
0.4872093
0.4865911
0.4863173
0.4862026
0.4861706
0.4861954
0.5018518
0.4954977
0.4903251
0.4868589
0.4850959
0.4843035
0.4839547
0.4838102
0.4837704
0.4838011
0.5018145
0.4953134
0.4898816
0.486155
0.4842087
0.4833184
0.4829243
0.4827613
0.482716
0.4827495
0.5018074
0.4952617
0.4897366
0.4859108
0.4838892
0.4829552
0.4825393
0.4823668
0.4823189
0.4823538
0.5018101
0.4952523
0.4896892
0.4858216
0.4837663
0.4828105
0.4823827
0.4822049
0.4821557
0.4821919
0.6498351
0.6987533
0.6979418
0.6975481
0.697378
0.6973123
0.6972902
0.6972842
0.6972854
0.6499245
0.6987976
0.6974027
0.6962989
0.6956754
0.6953734
0.6952405
0.6951874
0.6951723
0.6951798
0.6993928
0.697896
0.695929
0.6943383
0.6934033
0.6929376
0.6927215
0.6926304
0.6926049
0.6926232
0.6991226
0.6973295
0.6948947
0.692799
0.6915029
0.6908595
0.6905635
0.6904384
0.6904045
0.6904337
0.6990241
0.6970696
0.6943958
0.6919977
0.6904378
0.689647
0.6892917
0.6891433
0.6891042
0.6891407
0.6989972
0.697012
0.6943061
0.6918605
0.6902396
0.6894049
0.6890355
0.6888828
0.6888435
0.6888827
0.6990196
0.6971221
0.6945761
0.6923269
0.6908785
0.6901461
0.6898205
0.6896863
0.6896527
0.6896898
0.6991017
0.6974471
0.6953188
0.6935415
0.6924528
0.6919158
0.6916751
0.6915752
0.6915516
0.6915828
0.6992817
0.6980917
0.6966716
0.6955638
0.6949224
0.6946143
0.6944712
0.6944101
0.6943973
0.6944199
0.6996202
0.6990619
0.6984411
0.6980189
0.6977905
0.6976734
0.6976141
0.6975865
0.6975826
0.6975964
0.6489266
0.6497949
0.7002289
0.700525
0.7006734
0.7006773
0.7006679
0.7006626
0.7006642
0.7006704
0.6249265
0.7006151
0.7022963
0.7033108
0.7035137
0.7034765
0.7034192
0.7033951
0.7033924
0.7033983
0.7003188
0.6995816
0.6992685
0.6990722
0.6989497
0.6988252
0.6987393
0.6986977
0.6986867
0.6986952
0.7005154
0.6987528
0.6973894
0.6962817
0.6956046
0.6952676
0.6951017
0.6950277
0.6950066
0.6950232
0.7005511
0.6981626
0.6959914
0.6941678
0.6930408
0.6924617
0.6921986
0.6920866
0.6920552
0.6920803
0.7004955
0.6978449
0.6952087
0.6928467
0.6913272
0.690551
0.6902021
0.6900558
0.6900152
0.6900465
0.700464
0.6977065
0.6948663
0.6922444
0.6904946
0.6895846
0.689179
0.6890098
0.6889626
0.6889972
0.700455
0.6976617
0.6947472
0.6920296
0.6901908
0.6892236
0.688791
0.6886106
0.6885605
0.6885973
0.700453
0.6976474
0.6947036
0.6919461
0.6900683
0.6890736
0.6886268
0.6884409
0.6883906
0.6884302
0.8499543
0.8995778
0.8992627
0.8990945
0.8990163
0.8989845
0.8989729
0.8989696
0.8989706
0.8499785
0.8996113
0.8991004
0.8986545
0.8983766
0.8982303
0.8981614
0.8981322
0.8981239
0.8981289
0.8998139
0.8993201
0.8986167
0.8979916
0.8975818
0.8973583
0.8972479
0.897199
0.8971851
0.897195
0.8997256
0.8991465
0.8983057
0.8975108
0.8969529
0.8966482
0.8965015
0.8964372
0.8964192
0.8964338
0.8996903
0.8990679
0.8981642
0.8972699
0.8966024
0.8962315
0.896061
0.8959885
0.8959689
0.8959869
0.899678
0.8990513
0.8981533
0.8972619
0.8965875
0.8962121
0.8960436
0.8959733
0.8959553
0.8959741
0.8996825
0.8990899
0.8982643
0.8974734
0.8968962
0.8965792
0.8964363
0.8963779
0.896364
0.8963815
0.89971
0.8992028
0.898533
0.8979399
0.8975315
0.8973124
0.8972148
0.8971745
0.8971657
0.89718
0.8997736
0.8994182
0.8989864
0.8986455
0.8984342
0.8983248
0.8982733
0.8982516
0.8982477
0.8982576
0.8998868
0.899724
0.8995361
0.8994043
0.8993291
0.8992905
0.8992717
0.8992638
0.8992633
0.8992689
0.8489664
0.8499045
0.8999741
0.8999783
0.8999877
0.8999914
0.8999917
0.8999923
0.899994
0.8999962
0.8256184
0.9000016
0.900181
0.9003022
0.900341
0.900334
0.9003227
0.9003181
0.9003185
0.9003212
0.8999912
0.8998554
0.8997684
0.8996955
0.8996454
0.8996024
0.8995733
0.8995592
0.8995557
0.8995596
0.8999683
0.8996435
0.8992685
0.8989383
0.8987148
0.8985893
0.8985257
0.8984971
0.8984891
0.8984959
0.8999416
0.8994638
0.8988362
0.8982332
0.8977851
0.8975254
0.8974113
0.8973634
0.8973503
0.897361
0.899922
0.8993572
0.8985731
0.8977739
0.8971862
0.8968583
0.8967046
0.8966416
0.8966244
0.8966383
0.899911
0.8993074
0.8984483
0.8975433
0.8968414
0.8964455
0.8962684
0.8961952
0.8961758
0.8961921
0.8999071
0.899289
0.8984004
0.8974525
0.8966998
0.8962655
0.8960724
0.8959942
0.8959748
0.8959937
0.8999056
0.8992806
0.8983765
0.897407
0.8966314
0.8961796
0.8959783
0.8958987
0.8958817
0.8959054
1.049992
1.099963
1.09989
1.099849
1.099831
1.099825
1.099828
1.099836
1.099826
1.049999
1.100135
1.100233
1.100273
1.100287
1.10029
1.100289
1.100287
1.100288
1.100293
1.100095
1.100354
1.100674
1.100915
1.101049
1.101108
1.10113
1.101137
1.10114
1.101141
1.100135
1.100552
1.101104
1.101603
1.101931
1.102091
1.102156
1.10218
1.102187
1.102182
1.100145
1.100663
1.101369
1.102079
1.102597
1.102869
1.102982
1.103025
1.103037
1.103027
1.100138
1.10068
1.101451
1.102254
1.102865
1.103195
1.103336
1.103391
1.103406
1.103395
1.100112
1.100625
1.101376
1.102152
1.102731
1.103048
1.103187
1.103243
1.103258
1.103248
1.100069
1.100514
1.101151
1.101779
1.102226
1.102467
1.102575
1.10262
1.102632
1.102623
1.100027
1.100353
1.100785
1.101175
1.101428
1.101562
1.101626
1.101653
1.101661
1.101655
1.100008
1.100161
1.100356
1.100516
1.100613
1.100667
1.100695
1.100707
1.100711
1.100708
1.048979
1.049926
1.100006
1.100004
1.099999
1.100001
1.100007
1.100011
1.100012
1.100011
1.02625
1.099949
1.099822
1.099701
1.099663
1.099671
1.099682
1.099688
1.099689
1.099686
1.100042
1.100113
1.100226
1.100305
1.100356
1.1004
1.100429
1.100444
1.100448
1.100443
1.100044
1.100352
1.100728
1.101059
1.101283
1.101408
1.101472
1.101501
1.101508
1.101501
1.100059
1.100535
1.10116
1.101761
1.102207
1.102466
1.102579
1.102627
1.10264
1.10263
1.100078
1.100641
1.101421
1.102216
1.102799
1.103124
1.103276
1.103339
1.103358
1.103346
1.100088
1.100689
1.10154
1.102436
1.103129
1.103519
1.103694
1.103768
1.103791
1.10378
1.100091
1.100702
1.101577
1.102507
1.103243
1.103666
1.103855
1.103937
1.103964
1.103956
1.100091
1.100702
1.101579
1.102515
1.103259
1.10369
1.103886
1.103973
1.104007
1.104005
1.250008
1.299838
1.299596
1.299497
1.299511
1.299519
1.299537
1.299678
1.299623
1.250022
1.300725
1.301432
1.301892
1.302145
1.302264
1.302311
1.30233
1.302339
1.302361
1.300284
1.301589
1.303091
1.304219
1.304844
1.305135
1.30526
1.30531
1.305327
1.305328
1.300253
1.302242
1.304405
1.306218
1.3073
1.307811
1.308034
1.308123
1.308148
1.308131
1.300238
1.30256
1.305087
1.307349
1.308795
1.309508
1.309817
1.309942
1.309975
1.309946
1.300144
1.302572
1.305241
1.307666
1.309261
1.310069
1.310419
1.310561
1.310598
1.310565
1.29999
1.30237
1.304973
1.307295
1.308783
1.309528
1.309855
1.309988
1.310023
1.309992
1.299708
1.301997
1.304248
1.306156
1.30732
1.30789
1.308144
1.308248
1.308274
1.308248
1.299552
1.301422
1.302988
1.304229
1.304943
1.305285
1.305442
1.305508
1.305523
1.305505
1.299715
1.300675
1.301389
1.301884
1.302151
1.30229
1.30236
1.302389
1.302394
1.302384
1.248952
1.249951
1.299739
1.29945
1.299309
1.299315
1.299333
1.299342
1.299342
1.299338
1.225031
1.299421
1.297706
1.296691
1.29649
1.296528
1.296586
1.296611
1.296615
1.296608
1.299822
1.300448
1.300735
1.300928
1.301052
1.301177
1.301264
1.301305
1.301316
1.301305
1.299498
1.301251
1.30261
1.303717
1.304394
1.304731
1.304897
1.304971
1.304991
1.304973
1.29945
1.301838
1.304007
1.305829
1.306954
1.307532
1.307795
1.307907
1.307938
1.307913
1.299506
1.302156
1.304789
1.307146
1.308661
1.309435
1.309783
1.309929
1.30997
1.30994
1.299537
1.302294
1.305128
1.307741
1.309482
1.310387
1.31079
1.31096
1.31101
1.31098
1.299545
1.302335
1.305237
1.307938
1.309762
1.31072
1.31115
1.311333
1.31139
1.311362
1.299547
1.302341
1.305261
1.307989
1.309839
1.310817
1.31126
1.311453
1.311518
1.311497
1.449796
1.499208
1.498394
1.498353
1.498381
1.498374
1.498385
1.498453
1.499259
1.449831
1.501878
1.503443
1.504299
1.504737
1.504913
1.504966
1.504987
1.504983
1.505062
1.500538
1.50379
1.507112
1.509071
1.509975
1.510356
1.510506
1.510564
1.510582
1.510596
1.499013
1.505124
1.509332
1.512141
1.513513
1.514106
1.514355
1.514453
1.51448
1.514464
1.50015
1.505668
1.510271
1.51353
1.515212
1.515959
1.51628
1.516409
1.516442
1.516413
1.498772
1.505574
1.510429
1.513861
1.515652
1.516459
1.516809
1.51695
1.516987
1.516953
1.499704
1.505046
1.510025
1.51339
1.515108
1.515874
1.516206
1.51634
1.516374
1.516342
1.498439
1.504361
1.508938
1.511863
1.513287
1.513911
1.51418
1.514288
1.514315
1.514286
1.498222
1.503265
1.506729
1.508777
1.509723
1.510133
1.510314
1.510385
1.510399
1.510376
1.498974
1.501627
1.50338
1.504251
1.504629
1.504814
1.504913
1.504948
1.504942
1.504929
1.448324
1.450093
1.499062
1.498122
1.497945
1.497973
1.498018
1.498033
1.498022
1.498017
1.450035
1.494068
1.485921
1.484644
1.484285
1.484372
1.484464
1.484496
1.484497
1.484486
1.499006
1.501067
1.5021
1.502659
1.502911
1.503108
1.503229
1.503282
1.503294
1.503282
1.498109
1.502968
1.506081
1.50788
1.508744
1.50914
1.509327
1.509408
1.50943
1.509411
1.498074
1.504028
1.508546
1.511401
1.512787
1.513405
1.513678
1.513792
1.513823
1.513797
1.498165
1.504511
1.509677
1.513138
1.514897
1.515687
1.516036
1.51618
1.51622
1.51619
1.498197
1.504704
1.510121
1.513837
1.515777
1.516663
1.517056
1.51722
1.517267
1.517236
1.498209
1.504746
1.510258
1.51407
1.516081
1.517009
1.517422
1.517597
1.51765
1.51762
1.498207
1.504743
1.51029
1.514137
1.516173
1.517117
1.517543
1.517726
1.517785
1.517761
1.649475
1.64747
1.644245
1.644374
1.644415
1.644319
1.644222
1.644195
1.644711
1.649528
1.705486
1.708275
1.709381
1.709924
1.710074
1.710088
1.710108
1.710042
1.710111
1.648357
1.708826
1.713846
1.715928
1.716708
1.716986
1.717072
1.717103
1.717103
1.717114
1.700603
1.710403
1.716154
1.718828
1.719848
1.72024
1.720392
1.720449
1.720463
1.720455
1.701383
1.710853
1.716914
1.71985
1.721016
1.721482
1.721671
1.721744
1.721763
1.721746
1.699959
1.710739
1.717028
1.720063
1.721282
1.721775
1.721978
1.722057
1.722077
1.722058
1.646417
1.710306
1.716708
1.719714
1.7209
1.721375
1.721568
1.721644
1.721663
1.721645
1.644626
1.709512
1.715741
1.718512
1.719556
1.719961
1.720126
1.720189
1.720204
1.720187
1.643989
1.708004
1.713208
1.715328
1.716081
1.716371
1.716495
1.71654
1.716543
1.716525
1.644686
1.70471
1.707471
1.708533
1.708887
1.709048
1.709195
1.709227
1.70918
1.709164
1.647029
1.650705
1.65096
1.651059
1.651085
1.651128
1.651231
1.651281
1.651212
1.651211
1.625062
1.694021
1.689848
1.687555
1.687438
1.687559
1.687629
1.687649
1.687652
1.687662
1.647103
1.704352
1.706602
1.707388
1.707662
1.707819
1.707902
1.707938
1.707947
1.707944
1.644023
1.707764
1.712838
1.714831
1.715528
1.715803
1.715921
1.715971
1.715984
1.715973
1.643857
1.709076
1.715436
1.718206
1.719234
1.719634
1.719798
1.719865
1.719883
1.719868
1.643978
1.709542
1.716391
1.719519
1.720738
1.721224
1.721425
1.721505
1.721527
1.721511
1.64398
1.70973
1.716733
1.720009
1.72132
1.721854
1.722076
1.722166
1.722191
1.722174
1.644044
1.709743
1.716836
1.720171
1.721519
1.722074
1.722307
1.722402
1.72243
1.722414
1.643896
1.709722
1.716859
1.720221
1.721583
1.722147
1.722386
1.722486
1.722518
1.722505
1.823459
1.821845
1.822043
1.822804
1.8515
1.822027
1.852068
1.822064
1.823032
1.822377
1.902429
1.904532
1.905217
1.905443
1.905516
1.905517
1.905496
1.905482
1.905592
1.822308
1.904746
1.908458
1.909582
1.909897
1.909986
1.910005
1.910011
1.910011
1.910022
1.852769
1.905707
1.909672
1.911019
1.911395
1.91151
1.91155
1.911564
1.911567
1.911566
1.850145
1.905894
1.909977
1.911397
1.91181
1.911943
1.911993
1.912011
1.912015
1.912011
1.847438
1.905861
1.910013
1.911462
1.911887
1.912027
1.912079
1.912099
1.912104
1.912099
1.850657
1.905592
1.909897
1.911349
1.911769
1.911904
1.911955
1.911974
1.911978
1.911974
1.824938
1.905254
1.9095
1.910894
1.911278
1.911397
1.911441
1.911457
1.911461
1.911456
1.820729
1.904367
1.90816
1.909293
1.909592
1.909684
1.909715
1.909727
1.90973
1.90972
1.822567
1.901817
1.903781
1.904442
1.904604
1.904674
1.904675
1.904683
1.904702
1.904669
1.820964
1.855067
1.855981
1.856118
1.856148
1.856101
1.856474
1.856434
1.856318
1.856252
1.828295
1.82743
1.827209
1.825742
1.826547
1.827112
1.829105
1.826216
1.827076
1.825081
1.855278
1.855953
1.855976
1.855898
1.855893
1.85589
1.855889
1.855886
1.855953
1.821325
1.902799
1.905164
1.905893
1.906071
1.906132
1.906158
1.906168
1.906172
1.906174
1.820527
1.90436
1.908268
1.909409
1.909703
1.909791
1.909825
1.909839
1.909843
1.90984
1.820525
1.905048
1.90943
1.910845
1.91123
1.911348
1.911392
1.91141
1.911414
1.911411
1.821656
1.905264
1.90978
1.911292
1.911726
1.911865
1.911918
1.911938
1.911943
1.911939
1.848317
1.905321
1.909888
1.911436
1.911892
1.912042
1.9121
1.912122
1.912129
1.912125
1.822241
1.905321
1.909919
1.911483
1.911948
1.912103
1.912163
1.912187
1.912194
1.91219
1.82164
1.905319
1.909927
1.911498
1.911966
1.912123
1.912185
1.91221
1.912218
1.912215
0.04722437
0.1764125
0.1765417
0.1458073
0.01026106
0.02188521
0.1786227
0.148474
0.0102507
0.02162867
0.02196236
0.1742759
0.1741011
0.1485495
0.1485371
0.0213688
0.02184123
0.02090727
0.1737013
0.1711953
0.1479629
0.1471653
0.0102369
0.02129778
0.02196086
0.1712054
0.1737834
0.1474339
0.1481017
0.01025756
0.02199
0.02200456
0.1741824
0.174292
0.1483193
0.1483709
0.01025762
0.02200453
0.02200182
0.1742939
0.1742901
0.1483807
0.1483803
0.009940571
0.02200523
0.02200417
0.1742724
0.1729042
0.1484138
0.1484334
0.02097742
0.02200631
0.02200075
0.1718125
0.1709084
0.1484179
0.1484116
0.01023072
0.0220022
0.02195761
0.1711374
0.1736915
0.1483859
0.1482981
0.0213694
0.02184131
0.02090313
0.1736941
0.1712451
0.1478577
0.1471227
0.04840018
0.04658188
0.1762712
0.1463911
0.1790605
0.145204
0.04718445
0.04612519
0.1793268
0.1448521
0.1794571
0.1444011
0.0458844
0.04574432
0.1794631
0.1442443
0.1794661
0.1440441
0.04571975
0.04570244
0.1794659
0.1440095
0.1794645
0.1439509
0.04569993
0.04569739
0.1794645
0.1439495
0.1794642
0.1439301
0.04569739
0.04569704
0.1794643
0.143934
0.1794646
0.1439284
0.04569826
0.04569977
0.1794648
0.143935
0.1794664
0.1439384
0.04570258
0.04570469
0.1794675
0.1439495
0.1794706
0.1439559
0.2254443
0.2255609
0.2482578
0.3753757
0.375463
0.3491448
0.2280599
0.2495223
0.3757356
0.3497394
0.4243494
0.4244172
0.4495488
0.5754972
0.5755196
0.5497532
0.424499
0.4499464
0.5756687
0.5499834
0.6244393
0.6244566
0.6498632
0.7755237
0.7755313
0.7499218
0.6244492
0.6499747
0.7756295
0.7756666
0.7500173
0.8244597
0.8244651
0.8499592
0.9755332
0.9755316
0.9499796
0.8244159
0.8500773
0.9756059
0.9743271
0.9499043
1.024466
1.024466
1.049999
1.175533
1.175535
1.150012
1.024394
1.025614
1.050089
1.175585
1.174991
1.149968
1.224465
1.224471
1.250032
1.375529
1.375528
1.350055
1.224371
1.250015
1.375551
1.376276
1.349857
1.424456
1.424454
1.450097
1.575494
1.575496
1.550179
1.424332
1.426319
1.450002
1.575503
1.57366
1.550077
1.624424
1.624431
1.650369
1.773913
1.773837
1.750952
1.624267
1.623733
1.65035
1.772168
1.774295
1.750375
1.822633
1.821972
1.853254
1.952253
1.821534
1.854633
1.855474
1.95268
1.953936
1.822682
1.855796
1.856114
1.954286
1.954251
1.82172
1.856166
1.856381
1.954259
1.954486
1.852169
1.856922
1.857513
1.978537
1.95508
1.955481
1.822485
1.857372
1.856795
1.978878
1.955412
1.954959
1.824574
1.856744
1.857225
1.978948
1.954731
1.955232
1.823359
1.857603
1.857207
1.978945
1.955575
1.955203
1.821834
1.856614
1.856453
1.954607
1.954493
1.848203
1.856597
1.856726
1.954908
1.95513
1.854736
1.821236
1.855757
1.952523
1.953937
1.856768
1.849983
1.857989
1.954757
1.978886
1.955623
1.859028
1.850488
1.859453
1.979066
1.956065
1.979132
1.956194
1.859446
1.849266
1.859099
1.979103
1.956172
1.978928
1.955929
1.858492
1.850022
1.858249
1.955659
1.955608
1.858259
1.852926
1.858076
1.978933
1.955749
1.978937
1.955764
1.857326
1.821129
1.856527
1.978976
1.95526
1.954575
1.856111
1.822015
1.85583
1.954296
1.954066
1.855587
1.820838
1.854693
1.953764
1.952533
1.853587
1.820295
1.952779
1.977421
1.823098
1.825393
1.851194
1.990538
1.977783
1.828233
1.851667
1.851874
1.991058
1.99069
1.978366
1.978502
1.827238
1.851663
1.851712
1.990068
1.990253
1.978119
1.978321
1.825972
1.851762
1.851696
1.990253
1.989748
1.977842
1.978019
1.826461
1.851631
1.851621
1.989744
1.989701
1.97801
1.97801
1.82629
1.851613
1.851604
1.989772
1.989805
1.978006
1.978001
1.829104
1.851594
1.851599
1.989848
1.978759
1.978001
1.978004
1.827117
1.851594
1.851582
1.978758
1.989846
1.978003
1.977999
1.826196
1.851583
1.851603
1.989799
1.989772
1.977998
1.978012
1.828001
1.851705
1.851728
1.989773
1.990301
1.978071
1.978298
1.853513
1.82201
1.854723
1.951553
1.953572
1.855119
1.820534
1.85557
1.952853
1.953853
1.855722
1.820525
1.855923
1.954089
1.954229
1.855965
1.821206
1.856035
1.954259
1.954341
1.856025
1.822464
1.856134
1.954499
1.954564
1.85621
1.848306
1.856213
1.954711
1.954706
1.856138
1.821245
1.856103
1.954505
1.954392
1.85604
1.82092
1.856087
1.95449
1.954356
0.07293384
0.02376149
0.01926274
0.04615851
0.04330808
0.1743715
0.146453
0.1432546
0.1402401
0.04302287
0.0423823
0.04083907
0.142896
0.1425308
0.1366685
0.1340668
0.04216625
0.04024911
0.04002762
0.1414383
0.1409222
0.1327295
0.1321418
0.04202657
0.03994467
0.03991028
0.1406615
0.1405505
0.1318899
0.1317713
0.04200841
0.03989666
0.03989058
0.1405093
0.1404908
0.1317254
0.1317004
0.04200623
0.03988821
0.03988703
0.1404853
0.1404823
0.1316921
0.1316859
0.04200568
0.03988642
0.0398861
0.1404815
0.1404809
0.1316843
0.1316826
0.04200548
0.03988601
0.03988593
0.1404807
0.1404805
0.1316823
0.131682
0.04200544
0.03988596
0.03988611
0.1404805
0.1404806
0.1316823
0.131683
0.04644264
0.02088603
0.04460408
0.1747461
0.1437797
0.1492133
0.1421715
0.04405468
0.02085991
0.04381401
0.1467002
0.1410666
0.1489381
0.1405087
0.04375101
0.02086671
0.04372355
0.1492297
0.1403166
0.1493609
0.1402238
0.04371455
0.02086801
0.04371112
0.1493555
0.140193
0.1493568
0.1401739
0.04370944
0.02086817
0.0437097
0.1493538
0.1401669
0.1493526
0.1401694
0.04371019
0.02086783
0.04371389
0.1493532
0.1401686
0.1493572
0.1401918
0.04371859
0.02086686
0.04374167
0.149363
0.1402027
0.1493697
0.1402832
0.0437786
0.02086905
0.04395951
0.1493872
0.1403615
0.1492802
0.1406852
0.04429911
0.02090412
0.04574526
0.1490232
0.1411515
0.1466546
0.1425651
0.04615957
0.02316423
0.1483313
0.1449393
0.1800136
0.04557913
0.02310271
0.02304002
0.1447864
0.144335
0.1807228
0.1822378
0.04490475
0.02297638
0.0214875
0.1439793
0.1436209
0.1820779
0.181218
0.04501055
0.021487
0.02297097
0.1435535
0.1436736
0.1812201
0.1820837
0.04511657
0.02302582
0.02303681
0.1437867
0.1438193
0.1822151
0.1823071
0.04511355
0.02303689
0.02303633
0.1438259
0.1438105
0.1823104
0.1823028
0.04493002
0.02303455
0.02264333
0.1437538
0.1435818
0.1822805
0.181825
0.04489086
0.02129824
0.02295774
0.1432526
0.1435197
0.1811018
0.1819999
0.04484243
0.02295923
0.02148665
0.1435709
0.1434646
0.1820079
0.1812505
0.01024903
0.08760743
0.01025856
0.08438175
0.084373
0.009935425
0.08421713
0.08261277
0.01025787
0.08430571
0.08436918
0.01025769
0.08437221
0.08437274
0.01025131
0.08436906
0.08430692
0.009935625
0.08415193
0.08261138
0.07197232
0.02340885
0.07209392
0.02283422
0.04678464
0.04537471
0.04372415
0.14484
0.1442222
0.1421492
0.1403976
0.04612985
0.0432891
0.04306028
0.1438342
0.1434738
0.1396325
0.1392362
0.04641754
0.04302504
0.04304244
0.1435934
0.1439161
0.1391414
0.1391531
0.04651929
0.04305893
0.04306363
0.1440524
0.1440894
0.1391852
0.1391842
0.04652324
0.04306428
0.04306413
0.1440982
0.1441002
0.1391846
0.1391781
0.04653355
0.04306473
0.0430645
0.1441113
0.1441163
0.1391778
0.1391751
0.04652486
0.0430634
0.04306135
0.1441108
0.1441023
0.1391717
0.1391648
0.04648744
0.04305628
0.04304114
0.1440801
0.1440077
0.1391486
0.1391118
0.04608929
0.04300412
0.04296446
0.1437637
0.1434195
0.1390271
0.1389423
0.07184704
0.02267482
0.07188074
0.02261048
0.07178104
0.02251926
0.07179581
0.0224566
0.07176872
0.02250114
0.07177305
0.0224498
0.07176706
0.0225008
0.0717697
0.02244959
0.07176693
0.02250082
0.07176899
0.02244949
0.07176773
0.02250086
0.07176942
0.02244968
0.07177264
0.02250167
0.07177268
0.02245088
0.2749101
0.2248556
0.2478388
0.2286061
0.3509828
0.3490731
0.375292
0.2122447
0.2877189
0.2488254
0.2510096
0.2481806
0.3750484
0.3497275
0.352974
0.3492316
0.4749803
0.4249684
0.4494913
0.4248121
0.5509166
0.5497978
0.5752886
0.4122705
0.4877294
0.4500079
0.4518359
0.4499012
0.5750267
0.5500014
0.551679
0.5497498
0.675001
0.6249936
0.649859
0.6248152
0.7509906
0.7499689
0.7752625
0.6122741
0.6877296
0.6499965
0.6492334
0.6501238
0.7762726
0.7499884
0.7510327
0.7497864
0.8749971
0.8250013
0.8499516
0.8247891
0.9510141
0.9500101
0.9752359
0.812273
0.8877284
0.8500669
0.8489882
0.8501813
0.9737438
0.9498948
0.9510319
0.9497768
1.075
1.025001
1.049976
1.024764
1.151009
1.150029
1.17521
1.012272
1.087728
1.049996
1.049063
1.05016
1.175
1.149896
1.151051
1.149776
1.275008
1.225006
1.249995
1.224736
1.350815
1.350072
1.375181
1.212271
1.287726
1.250162
1.249023
1.250296
1.374908
1.349927
1.352035
1.349916
1.475007
1.425001
1.450063
1.424707
1.548213
1.55024
1.575176
1.412269
1.487726
1.450082
1.449186
1.450302
1.549538
1.549925
1.547151
1.550066
1.675016
1.62501
1.650401
1.624692
1.748949
1.750967
1.77146
1.612272
1.687737
1.650327
1.645776
1.650745
1.77343
1.751112
1.748937
1.751788
1.875583
1.825141
1.855837
1.847077
1.818474
1.953396
1.95464
1.978315
1.978256
1.856086
1.818179
1.817797
1.954802
1.954933
1.977348
1.977328
1.856153
1.817772
1.817708
1.954948
1.954902
1.977326
1.976966
1.856109
1.817702
1.818373
1.954889
1.954925
1.976963
1.976968
1.856268
1.818825
1.817948
1.954975
1.95497
1.977071
1.977032
1.856431
1.818177
1.846439
1.955141
1.955432
1.977355
1.979279
1.856488
1.84644
1.818184
1.955432
1.95514
1.979279
1.977354
1.856265
1.817932
1.817891
1.954954
1.954926
1.97703
1.976985
1.855994
1.818093
1.84522
1.955034
1.955223
1.977162
1.977555
1.812273
1.887602
1.855959
1.860287
1.860598
1.953463
1.953504
1.956679
1.956865
1.855926
1.860712
1.860769
1.953488
1.953499
1.956909
1.956926
1.855888
1.860822
1.860825
1.953467
1.953462
1.956934
1.956934
1.855903
1.860829
1.860836
1.953461
1.953475
1.956935
1.95694
1.855979
1.86085
1.860857
1.953524
1.953494
1.956946
1.956947
0.07210619
0.02240926
0.07117346
0.02341112
0.0721312
0.02242874
0.0712332
0.02342429
0.1242925
0.1747376
0.01026205
0.08438808
0.08616612
0.07374835
0.02296058
0.07218091
0.009939084
0.1877391
0.1125273
0.124842
0.1745636
0.1238069
0.1754092
0.01025818
0.08430672
0.08437124
0.07477453
0.009926333
0.02192334
0.06993851
0.07403682
0.070161
0.0105725
0.07494318
0.0106181
0.02198558
0.07018729
0.07492363
0.07025959
0.0105816
0.07383982
0.01059989
0.02140447
0.06997779
0.07469208
0.0694228
0.009886152
0.07381569
0.02236139
0.02130408
0.0680282
0.0733205
0.06848777
0.02274802
0.009935369
0.08421725
0.08261351
0.07381707
0.02275166
0.02140269
0.06851493
0.07384304
0.06937766
0.01031977
0.07467659
0.01060442
0.02184936
0.07016042
0.07494864
0.0699565
0.01051406
0.01025781
0.08437213
0.08437082
0.07504931
0.01061643
0.02199831
0.07023144
0.07502863
0.07025903
0.01059524
0.07506181
0.01063747
0.02200212
0.07027817
0.07508613
0.07027098
0.01059597
0.01025769
0.08437076
0.08437261
0.07506131
0.01063734
0.02200224
0.07027876
0.07508565
0.07027487
0.01059303
0.07504167
0.01059585
0.02199906
0.07027339
0.0750541
0.07026895
0.01058906
0.0102372
0.08261299
0.08421886
0.07512641
0.01065295
0.02200072
0.07031682
0.07513143
0.07033179
0.01066334
0.07509744
0.01064711
0.02200496
0.070304
0.07511811
0.0703067
0.01060875
0.07509937
0.01064848
0.02200193
0.07029339
0.07511164
0.07030421
0.01062118
0.009940862
0.08415235
0.08260952
0.07507198
0.01064361
0.02200065
0.07028864
0.07510431
0.07028635
0.01060103
0.07504567
0.0106268
0.02199072
0.07020216
0.07497921
0.07026874
0.01060022
0.0738701
0.01060641
0.02140693
0.0699838
0.07473223
0.06943179
0.009885197
0.07383504
0.02235944
0.02130477
0.06801781
0.07332185
0.06848891
0.02274999
0.07194407
0.02264999
0.07189196
0.02270016
0.07182679
0.02253066
0.07180355
0.02256509
0.07177719
0.02250158
0.0717735
0.02245378
0.07176871
0.02250088
0.07176934
0.02244968
0.0717673
0.02250076
0.07176884
0.0224495
0.07176717
0.02250083
0.07176899