/*--------------------------------*- C++ -*----------------------------------*\
  =========                 |
  \\      /  F ield         | OpenFOAM: The Open Source CFD Toolbox
   \\    /   O peration     | Website:  https://openfoam.org
    \\  /    A nd           | Version:  7
     \\/     M anipulation  |
\*---------------------------------------------------------------------------*/
FoamFile
{
    version     2.0;
    format      ascii;
    class       volVectorField;
    location    "0.1";
    object      U;
}
// * * * * * * * * * * * * * * * * * * * * * * * * * * * * * * * * * * * * * //

dimensions      [0 1 -1 0 0 0 0];

internalField   nonuniform List<vector> 
89125
(
(-0.02612633 -1.013273 -0.04147672)
(-0.019984 -0.9843413 -0.04689472)
(-0.0232563 -0.9846219 -0.04487567)
(-0.02757005 -0.9858049 -0.04440945)
(-0.0256246 -0.9834009 -0.04418078)
(-0.02779984 -1.005498 -0.03692887)
(-0.02111836 -0.994226 -0.03913425)
(-0.02671105 -0.9875487 -0.04271728)
(-0.005314052 -1.00077 -0.02058323)
(-0.007630797 -1.025449 -0.01967285)
(-0.00444111 -1.025389 -0.0203274)
(-0.003177282 -1.021846 -0.0161574)
(-0.001602584 -1.021864 -0.02132919)
(-0.003631588 -1.017267 -0.01914635)
(0.001235927 -1.018809 -0.02335955)
(0.001128218 -1.015661 -0.01833816)
(0.0003951473 -1.015883 -0.02205014)
(-0.00336009 -1.053878 -0.005130189)
(0.009539419 -0.9799145 0.007871276)
(0.006298179 -0.9850875 -0.01759315)
(0.007846947 -0.9845851 -0.01284056)
(0.001791306 -0.9860706 -0.006161184)
(0.0004252309 -0.9800046 -0.01163653)
(0.0014919 -0.9809101 -0.007982032)
(0.001910817 -0.9837606 -0.006797134)
(0.001858543 -0.9816331 -0.006402845)
(0.00360061 -0.9778227 -0.009124137)
(-0.003803064 -1.06716 -0.002818823)
(-0.007666776 -0.9956418 0.003935756)
(0.0003422008 -1.000702 0.002497363)
(-0.0002162953 -0.9996394 0.003109407)
(0.001491613 -1.002538 0.003066725)
(-0.002015206 -1.001637 0.004431838)
(0.002488747 -0.999111 0.003920187)
(0.00176255 -1.003759 0.003918656)
(0.001676381 -1.000371 0.005044342)
(0.004322742 -1.000164 0.005920722)
(-0.003703972 -1.074281 -0.003072822)
(0.0004007574 -0.9851066 6.651798e-05)
(0.0001483112 -0.9943717 -0.003266882)
(0.0001849694 -0.9928269 -0.0009123055)
(0.002318469 -0.9897579 -0.001821965)
(-0.001775079 -0.9881586 -0.001709565)
(0.002144214 -0.9928706 0.001186209)
(0.001412037 -0.9873406 -0.002777925)
(0.00165828 -0.9931538 0.001486728)
(0.004625542 -0.9856798 0.0005184998)
(-0.003782533 -1.077777 -0.003264288)
(0.0009142972 -0.992095 0.0009896106)
(0.002605053 -0.9993753 0.002102217)
(0.001192593 -1.003788 0.001992547)
(0.003741757 -1.002212 0.004078656)
(0.0002538286 -1.003751 0.003282008)
(0.005020088 -1.007092 0.005619528)
(0.002579499 -1.002506 0.002165768)
(0.002785792 -1.008165 0.006657632)
(0.00555483 -1.005814 0.004270119)
(-0.003936525 -1.079882 -0.00299674)
(-0.001660782 -0.9941344 4.701349e-05)
(-0.004044808 -0.9981896 0.003979944)
(-0.002538922 -1.000311 0.001556764)
(0.0004956534 -0.9950431 0.004995851)
(-0.003323477 -0.9942929 0.003243261)
(0.005030592 -1.0017 0.002210569)
(0.001942919 -0.986704 0.001815014)
(0.001578445 -1.003452 0.0006788616)
(0.00562719 -0.9943943 0.001729802)
(-0.00671797 -1.0752 -0.003941662)
(0.004632601 -0.9889658 0.006865601)
(0.006124137 -1.002607 0.01269568)
(0.004629143 -1.014196 0.01471291)
(0.008967989 -1.010906 0.01879542)
(0.002533573 -1.017827 0.01708267)
(0.01065683 -1.025667 0.02618165)
(0.006284908 -1.010268 0.01080023)
(0.0001018361 -1.026855 0.016547)
(0.005290082 -1.02841 0.01327572)
(-0.005206902 -1.072058 -0.002974127)
(0.004195752 -1.028109 0.01146523)
(-0.01223529 -1.038313 0.02989714)
(-0.004746006 -1.045371 0.03071646)
(-0.006790543 -1.050448 0.03742388)
(-0.01188072 -1.044198 0.03103423)
(-0.003457589 -1.061796 0.04859158)
(-0.007896948 -1.012867 0.019791)
(0.00111734 -1.038284 0.03330976)
(-0.000424624 -1.049101 0.03241142)
(3.307749e-05 -1.028012 0.0001938169)
(0.002852095 -1.010487 0.008643476)
(0.01595792 -1.036904 0.03246882)
(0.006742932 -1.055061 0.04602822)
(0.003073391 -1.063185 0.04448991)
(0.00348865 -1.055064 0.04664888)
(-0.002355317 -1.089155 0.04317008)
(-0.007768066 -1.017378 0.05249765)
(0.0273328 -1.079018 0.04984741)
(0.002582648 -1.079067 0.03553356)
(-0.006987787 -0.9732655 -0.01541711)
(0.03231832 -1.115172 0.02298609)
(0.01515641 -1.092036 0.02657704)
(0.01074295 -1.10414 0.007034055)
(0.01167014 -1.147439 0.01666361)
(0.01146976 -1.150042 0.006858557)
(0.01414774 -1.164404 0.01183997)
(-0.0375825 -1.156727 0.009268697)
(0.08212315 -1.153791 0.004546017)
(0.027488 -1.194464 0.01433324)
(-0.0007663592 -0.9821297 0.001067534)
(0.0002789513 -0.9812902 0.0001891058)
(-0.001770471 -0.9628207 -9.306937e-05)
(0.0002878052 -0.9933054 0.01015523)
(-5.577633e-05 -0.9820504 0.003182701)
(0.006847898 -0.9970677 0.01012874)
(0.004645167 -0.984618 0.003407686)
(0.008598458 -0.9977297 -0.006427811)
(0.005996896 -0.9904668 0.00810051)
(-5.067929e-08 3.193954e-08 -1.425605e-09)
(-1.010052e-07 2.320113e-08 9.046209e-10)
(-1.630761e-07 1.124288e-08 1.063448e-09)
(-2.147082e-07 1.310462e-08 6.646449e-10)
(-2.769512e-07 5.920919e-09 2.203195e-09)
(-3.415426e-07 -1.745471e-09 -1.682354e-09)
(-4.134808e-07 -4.998334e-09 -1.065856e-10)
(-4.931301e-07 -1.498804e-08 -6.403596e-09)
(-5.862903e-07 -2.140459e-08 -6.908874e-09)
(-7.417219e-08 1.068385e-07 3.226281e-09)
(-1.257961e-07 1.172544e-07 2.383784e-09)
(-1.808283e-07 1.153446e-07 -2.647932e-09)
(-2.35809e-07 1.212128e-07 -6.359024e-09)
(-2.957198e-07 1.280651e-07 -8.529701e-09)
(-3.597984e-07 1.398585e-07 -1.187491e-08)
(-4.301127e-07 1.54333e-07 -1.230923e-08)
(-5.07074e-07 1.745507e-07 -1.211348e-08)
(-5.908796e-07 1.979933e-07 -8.595166e-09)
(-8.098916e-08 1.48797e-07 1.58059e-09)
(-1.181197e-07 1.597828e-07 -5.485562e-10)
(-1.740093e-07 1.658149e-07 2.262764e-09)
(-2.262672e-07 1.768244e-07 1.637208e-09)
(-2.870225e-07 1.885217e-07 1.109959e-09)
(-3.489509e-07 2.033349e-07 6.702062e-10)
(-4.174051e-07 2.223573e-07 2.130435e-09)
(-4.928871e-07 2.454066e-07 4.14954e-09)
(-5.738895e-07 2.727704e-07 5.66885e-09)
(-7.650608e-08 2.032902e-07 7.317251e-10)
(-1.134671e-07 2.138801e-07 -2.453299e-09)
(-1.654201e-07 2.211325e-07 -1.423554e-10)
(-2.148565e-07 2.326387e-07 -6.421167e-10)
(-2.69383e-07 2.496369e-07 -1.172114e-09)
(-3.279616e-07 2.695671e-07 -9.707225e-10)
(-3.914203e-07 2.94772e-07 -1.875159e-09)
(-4.600913e-07 3.250559e-07 -1.646419e-09)
(-5.356033e-07 3.613731e-07 -1.781436e-09)
(-7.120917e-08 2.501421e-07 -9.652537e-10)
(-1.034998e-07 2.54734e-07 -2.062141e-09)
(-1.523774e-07 2.684543e-07 4.433204e-10)
(-1.984827e-07 2.831834e-07 1.190309e-10)
(-2.501176e-07 3.036039e-07 1.410478e-10)
(-3.034488e-07 3.276934e-07 5.840604e-11)
(-3.619213e-07 3.571826e-07 2.909715e-10)
(-4.247421e-07 3.927543e-07 5.193688e-10)
(-4.937297e-07 4.351377e-07 8.210114e-10)
(-5.712575e-08 2.976648e-07 -2.771511e-09)
(-9.18442e-08 2.995292e-07 -6.547078e-10)
(-1.375284e-07 3.151951e-07 7.793219e-10)
(-1.794926e-07 3.309286e-07 -1.106977e-10)
(-2.258926e-07 3.548407e-07 -1.01123e-10)
(-2.738669e-07 3.821841e-07 -1.555753e-10)
(-3.26068e-07 4.164452e-07 -3.298861e-10)
(-3.82138e-07 4.569594e-07 -2.379129e-10)
(-4.42939e-07 5.054303e-07 -2.963072e-10)
(-4.749047e-08 3.331706e-07 -3.185986e-09)
(-8.540887e-08 3.372514e-07 -2.863547e-10)
(-1.204401e-07 3.552522e-07 -1.976567e-10)
(-1.594844e-07 3.724677e-07 5.358249e-12)
(-1.992132e-07 3.984409e-07 -1.088035e-11)
(-2.417038e-07 4.287137e-07 -2.821255e-12)
(-2.869476e-07 4.661601e-07 9.961718e-11)
(-3.355481e-07 5.105643e-07 1.034011e-10)
(-3.877822e-07 5.632653e-07 2.175841e-10)
(-3.809168e-08 3.618143e-07 -3.180165e-09)
(-7.475261e-08 3.720174e-07 4.240313e-10)
(-1.024018e-07 3.894166e-07 -3.420085e-10)
(-1.36264e-07 4.093657e-07 1.633112e-10)
(-1.697395e-07 4.370285e-07 -1.117467e-10)
(-2.060051e-07 4.698494e-07 1.216361e-11)
(-2.440945e-07 5.101339e-07 -1.061755e-10)
(-2.849044e-07 5.576125e-07 -4.26598e-11)
(-3.280478e-07 6.137556e-07 -8.942691e-11)
(-0.01318138 -0.9965275 -0.007980127)
(-0.006608868 -0.9961654 -0.01112807)
(0.0002516633 -1.007162 -0.01689343)
(-0.003355489 -1.011468 -0.01966257)
(0.0005383859 -1.002068 -0.01645688)
(0.000773486 -0.9981732 -0.01726255)
(0.0006375831 -0.9987243 -0.01716667)
(0.0001957003 -1.002208 -0.01761983)
(0.0007327696 -0.9969324 -0.01644953)
(-0.04098805 -0.9716779 -0.01495332)
(0.005772038 -1.001831 -0.00129067)
(0.008469373 -0.9867944 0.01051155)
(0.00541571 -0.9802167 0.008253993)
(0.002595831 -0.9840999 0.009770258)
(0.0008963487 -0.9829147 0.009510701)
(0.002087606 -0.9723955 0.007757236)
(0.001706026 -0.9822422 0.008112716)
(0.001954762 -0.9762919 0.009252765)
(0.00184521 -0.9815218 0.00896683)
(-0.01474385 -1.01094 -0.0008061325)
(0.01484565 -0.9930722 0.009093929)
(-0.003167334 -1.000565 -0.004579813)
(0.000937944 -1.006807 -0.006011765)
(0.0007580051 -1.00271 -0.004805302)
(-0.0001731577 -1.00566 -0.006875856)
(0.0009528896 -1.00385 -0.007249108)
(0.002576797 -1.002221 -0.007187613)
(0.002008285 -1.001799 -0.006584926)
(0.003480568 -1.001447 -0.0074944)
(-0.007186448 -0.9752269 0.008619561)
(-0.003486214 -1.010283 0.002302552)
(0.001575193 -0.9942934 0.001763301)
(0.000175222 -0.9994825 0.003640463)
(0.002192272 -0.9952097 0.002451832)
(0.001771089 -0.9966493 0.003280582)
(0.002591075 -0.993063 0.002049232)
(0.002270569 -0.9943601 0.00182929)
(0.003260731 -0.9921375 0.0007170991)
(0.003043616 -0.9938541 0.001677576)
(0.00432475 -0.9924714 -0.002548017)
(0.00280217 -0.9985114 0.001384423)
(0.0004682075 -0.9979172 0.0004078537)
(0.001977802 -0.9998196 0.001570324)
(0.001670055 -0.9966024 0.001019387)
(0.001184612 -0.9966165 0.001584853)
(0.002436436 -0.9932613 -0.0003941385)
(0.003267202 -0.9942675 0.0008417243)
(0.003420542 -0.9915353 -0.002018865)
(0.003932647 -0.9939021 -0.000528227)
(-0.00336247 -0.9841185 0.007096882)
(0.001359388 -1.003712 0.004444481)
(0.002629791 -0.9986486 0.003123803)
(0.003449072 -1.004302 0.006177305)
(0.003098587 -1.000291 0.004569859)
(0.003599692 -1.003905 0.005407129)
(0.002486555 -0.9993198 0.004339751)
(0.003575097 -1.005391 0.005364763)
(0.004553248 -0.9977804 0.0036845)
(0.004790441 -1.004053 0.008034733)
(-0.002501573 -0.9900986 0.0006692258)
(-0.0002284755 -1.004342 0.002792297)
(-0.002801802 -0.9974602 -0.00454632)
(-0.0009331025 -0.9975831 -0.0005738439)
(0.002011166 -0.9894624 -0.002891165)
(0.004049703 -0.9919536 -0.002267364)
(-1.221126e-05 -0.9864061 -0.0004519116)
(0.002550486 -0.992996 -0.001264096)
(0.003631577 -0.9854837 -0.0004560288)
(0.00349064 -0.9932157 0.005845612)
(0.0008489234 -0.9791273 0.01028046)
(0.006664305 -0.9994571 0.009160075)
(0.01101415 -0.9970362 0.02544243)
(0.009501855 -1.007689 0.02862848)
(0.01015117 -1.002793 0.03885405)
(0.007757031 -1.010523 0.03516531)
(0.003572694 -1.0058 0.03639932)
(0.004647879 -1.020572 0.03272207)
(0.002941553 -1.009598 0.03249906)
(0.00318824 -1.02542 0.04311948)
(0.00584644 -1.010522 -0.0003187012)
(-0.003365554 -1.014235 -0.003125795)
(-0.00580071 -1.016571 0.002461425)
(-0.002433174 -1.008775 -0.006363226)
(-0.002463371 -1.007344 0.007481234)
(-0.002611742 -1.005397 -0.01465546)
(-0.006952859 -1.004771 -0.01097115)
(-0.0008795415 -1.015594 -0.03260164)
(0.0007531935 -1.016013 -0.01500717)
(-0.0003998479 -1.021541 -0.009221928)
(0.006510462 -0.9851597 -0.0102596)
(0.01229576 -0.9713593 0.007884375)
(0.01703151 -0.9817478 0.05914852)
(0.02307248 -0.9838872 0.07374458)
(0.00266681 -0.9885439 0.07958683)
(0.008210556 -0.9738226 0.08747838)
(0.001856195 -0.9832286 0.09523171)
(-0.003651107 -1.018504 0.07532132)
(0.003653099 -1.016212 0.09325372)
(-0.002093928 -1.016166 0.120398)
(0.02920204 -1.053137 0.03064252)
(0.02848205 -1.005957 0.01805813)
(-0.03191097 -1.028241 -0.03761063)
(-0.01015151 -1.082809 -0.09137064)
(-0.004636894 -1.10627 -0.08558715)
(0.003405743 -1.120792 -0.08165852)
(-0.005044132 -1.128841 -0.0741988)
(-0.01230808 -1.110389 -0.08327249)
(0.04172381 -1.126822 -0.08194799)
(-0.03186194 -1.12104 -0.08632107)
(-6.627438e-09 4.049749e-08 -2.928625e-09)
(-7.915959e-08 4.019357e-08 -6.189766e-09)
(-1.303473e-07 3.609694e-08 4.048099e-09)
(-1.801977e-07 6.24995e-08 4.67989e-09)
(-2.410486e-07 7.053079e-08 8.794812e-09)
(-3.047527e-07 7.758415e-08 7.804423e-09)
(-3.741469e-07 8.597781e-08 7.643725e-09)
(-4.515848e-07 1.014319e-07 1.323288e-08)
(-5.377918e-07 1.11391e-07 1.625991e-08)
(-6.296584e-07 1.113462e-07 1.610754e-08)
(-2.527501e-09 8.217516e-08 6.484972e-09)
(-7.479774e-08 1.057958e-07 6.100006e-09)
(-1.360331e-07 1.016982e-07 -6.318956e-10)
(-1.904867e-07 9.757051e-08 -1.994048e-09)
(-2.436018e-07 1.033876e-07 -2.517046e-09)
(-3.03437e-07 1.151646e-07 1.020587e-09)
(-3.709392e-07 1.264114e-07 2.031024e-09)
(-4.423575e-07 1.350016e-07 -2.650604e-10)
(-5.179675e-07 1.454634e-07 -4.126813e-09)
(-5.988912e-07 1.593031e-07 -5.507853e-09)
(-1.723474e-09 1.25326e-07 9.312366e-09)
(-7.389628e-08 1.526753e-07 3.529294e-09)
(-1.195417e-07 1.604159e-07 -2.623919e-09)
(-1.738819e-07 1.669349e-07 -6.355279e-10)
(-2.292283e-07 1.753198e-07 2.617927e-10)
(-2.894716e-07 1.916829e-07 3.040665e-10)
(-3.500134e-07 2.05573e-07 1.000437e-09)
(-4.188221e-07 2.276799e-07 2.168628e-09)
(-4.916945e-07 2.488878e-07 2.544092e-09)
(-5.75337e-07 2.756093e-07 3.14043e-09)
(1.410013e-08 1.871013e-07 2.130891e-08)
(-6.825607e-08 2.075529e-07 5.123236e-09)
(-1.159192e-07 2.111391e-07 -2.552394e-09)
(-1.655233e-07 2.191016e-07 -5.107188e-10)
(-2.164325e-07 2.3075e-07 -1.435687e-09)
(-2.720272e-07 2.474053e-07 -8.516208e-10)
(-3.30024e-07 2.675596e-07 -1.288194e-09)
(-3.938622e-07 2.913451e-07 -1.166157e-09)
(-4.623008e-07 3.198111e-07 -1.277698e-09)
(-5.38481e-07 3.54686e-07 -1.207185e-09)
(1.06567e-08 2.272469e-07 2.824452e-08)
(-6.419511e-08 2.506678e-07 5.400819e-09)
(-1.053109e-07 2.572934e-07 -1.679966e-09)
(-1.529854e-07 2.685373e-07 -1.443964e-10)
(-1.995629e-07 2.836691e-07 -3.947626e-10)
(-2.511714e-07 3.040912e-07 -3.833084e-11)
(-3.044559e-07 3.277804e-07 -1.564993e-12)
(-3.627844e-07 3.579586e-07 1.527927e-10)
(-4.258991e-07 3.92962e-07 3.51241e-10)
(-4.952837e-07 4.353472e-07 5.002008e-10)
(7.084629e-09 2.714609e-07 2.838279e-08)
(-5.654998e-08 2.954203e-07 3.386623e-09)
(-9.630285e-08 3.008031e-07 -9.301197e-10)
(-1.378771e-07 3.150407e-07 4.444266e-10)
(-1.807865e-07 3.312132e-07 -5.106025e-10)
(-2.266097e-07 3.544915e-07 -1.777686e-10)
(-2.749148e-07 3.818808e-07 -3.945713e-10)
(-3.271721e-07 4.158799e-07 -3.038639e-10)
(-3.833373e-07 4.561439e-07 -3.682083e-10)
(-4.4442e-07 5.042717e-07 -3.452154e-10)
(2.287386e-10 3.111796e-07 3.884274e-08)
(-4.936302e-08 3.317233e-07 -8.58998e-10)
(-8.508408e-08 3.389653e-07 6.425308e-10)
(-1.214883e-07 3.543841e-07 -2.539177e-10)
(-1.596383e-07 3.730449e-07 -1.50384e-12)
(-1.997787e-07 3.985376e-07 -5.754743e-11)
(-2.42225e-07 4.289843e-07 8.355209e-11)
(-2.876008e-07 4.664946e-07 4.962749e-11)
(-3.36308e-07 5.109007e-07 1.584703e-10)
(-3.886797e-07 5.636609e-07 1.261145e-10)
(-5.586955e-09 3.408756e-07 3.514573e-08)
(-4.229156e-08 3.647291e-07 -2.686912e-09)
(-7.295178e-08 3.728923e-07 1.052198e-09)
(-1.035401e-07 3.89389e-07 -3.481704e-10)
(-1.363494e-07 4.097348e-07 9.606885e-12)
(-1.702232e-07 4.372453e-07 -1.184924e-10)
(-2.064222e-07 4.701414e-07 -1.197783e-10)
(-2.446388e-07 5.104206e-07 -8.978494e-11)
(-2.854671e-07 5.579131e-07 -1.301254e-10)
(-3.287733e-07 6.140493e-07 -1.244162e-10)
(-0.01112295 -1.002085 0.003434752)
(0.001629859 -0.9864285 0.009112966)
(0.004409544 -0.9848775 0.006570725)
(0.00182899 -0.9925381 0.002363929)
(0.001142601 -0.9866581 0.002052093)
(0.0006116187 -0.9874846 0.00168065)
(0.0006826039 -0.9876661 0.002780828)
(0.0006367349 -0.9852648 0.00134659)
(0.0005730198 -0.984653 0.002897265)
(-0.04749011 -0.9860566 -0.02997679)
(-0.01434183 -1.002436 -0.004684814)
(0.0001520608 -1.001906 -0.01022615)
(0.0009167433 -0.9918394 -0.01052032)
(0.002290725 -0.9987382 -0.01371983)
(0.000414832 -0.9915034 -0.01157005)
(0.001066342 -0.9936862 -0.009980653)
(0.0009025549 -0.9940359 -0.01293561)
(0.0007579028 -0.9919617 -0.0105864)
(0.001482863 -0.9895831 -0.01068314)
(-0.02000199 -1.021315 -0.0005167828)
(0.01486993 -0.9777672 0.007034545)
(-0.008343643 -0.9893969 -0.00114057)
(0.002731949 -0.9899349 -0.00238592)
(-0.001709646 -0.9887736 -0.0004673815)
(0.0001332649 -0.9881645 -0.001808892)
(0.0009308208 -0.9873169 0.0007462361)
(0.0008580084 -0.988491 -0.001027147)
(-5.192341e-05 -0.9872297 0.0005226667)
(0.002396425 -0.985806 -0.0003500824)
(-0.01211967 -0.9863464 0.004944806)
(-0.004730416 -1.005343 -0.001197038)
(0.001371851 -0.9940211 -0.0001955065)
(-0.0003309261 -0.998445 -0.001442216)
(0.002393786 -0.9981589 -0.0003871056)
(-0.002487381 -0.9962491 -0.001085469)
(0.00290828 -0.9996356 -0.001629808)
(-4.021225e-05 -0.9945929 0.0004983581)
(0.001601164 -1.000021 -0.0004695667)
(0.003538458 -0.9961116 0.001570915)
(0.002376329 -0.9975323 -0.002370245)
(0.001547547 -0.9924454 -0.002130072)
(-0.0005781926 -0.9918664 -0.001355273)
(0.00180845 -0.9887002 -1.474756e-05)
(0.001874584 -0.987117 0.0001614564)
(-0.003365953 -0.9856115 0.0009844925)
(0.002060116 -0.9925111 0.0008368904)
(-0.0001612061 -0.9841702 0.001662927)
(0.00267341 -0.9955762 0.003274021)
(0.00356155 -0.9839994 0.003125624)
(-0.0001750342 -0.9939073 -8.988251e-05)
(0.001669887 -0.9992639 0.0006711567)
(0.003486811 -0.9977498 0.003292828)
(0.002168259 -1.001589 0.002718174)
(0.002562628 -0.9958211 0.002669135)
(0.0004438618 -0.9995303 0.005192008)
(0.005292486 -1.009166 0.005568258)
(0.002136864 -0.9955747 0.005940858)
(0.004959988 -1.012214 0.006821747)
(0.004107548 -1.001663 0.009991338)
(9.123535e-05 -0.9919673 -0.003141588)
(-0.00307755 -0.9911894 -0.004818278)
(0.002000351 -0.987946 0.003202761)
(-0.002636601 -0.978193 -0.003625829)
(0.001378137 -0.9778625 0.001411177)
(0.000646352 -0.9785133 0.005546737)
(0.004900838 -0.987394 0.01150162)
(0.002027884 -0.9701918 0.004088956)
(0.00425249 -0.9902409 0.01409897)
(0.004342103 -0.9653767 0.007224311)
(0.009437488 -0.9908819 0.001691373)
(0.02526858 -0.9912198 0.008660029)
(0.03193852 -1.010011 0.03072073)
(0.01566532 -1.009775 0.03448329)
(0.01549651 -1.015133 0.04455385)
(0.007000294 -1.018948 0.04536976)
(0.01410034 -1.02854 0.05590643)
(0.003950855 -1.010064 0.043164)
(0.01016733 -1.030846 0.0570102)
(0.005963251 -1.001971 0.04191405)
(0.02471663 -1.020938 -0.007390394)
(0.0009064445 -1.003892 -0.006302439)
(0.02036629 -0.9570569 0.02356126)
(-0.0122901 -0.9424335 0.006204241)
(-0.002004071 -0.9399036 0.03506204)
(-0.01458118 -0.9458739 0.003251229)
(0.007730432 -0.9485267 0.03789314)
(-0.002584018 -0.9221351 0.008267611)
(0.01153957 -0.9506209 0.05573114)
(0.004435671 -0.8969157 0.008656824)
(0.02437961 -1.018476 0.01667656)
(0.06831186 -0.9675657 0.01139415)
(0.05260365 -1.01455 0.05044031)
(0.02785183 -1.010381 0.142781)
(0.01606178 -1.042179 0.1436025)
(0.01026322 -1.068785 0.1415522)
(0.03776075 -1.089005 0.1523818)
(0.005811199 -1.075611 0.1270558)
(0.0329139 -1.086892 0.145523)
(0.003564054 -1.044487 0.1129478)
(0.04121369 -1.09045 0.007581311)
(-0.01118374 -1.049223 -0.03170699)
(-0.1435515 -0.899821 -0.1397165)
(-0.05255257 -0.9082049 -0.2215978)
(-0.04233334 -0.9766572 -0.2525133)
(-0.02542261 -1.014286 -0.252883)
(-0.04115194 -1.036993 -0.2599416)
(-0.001292056 -0.9825791 -0.2406634)
(-0.06210039 -1.04848 -0.2595095)
(0.001814305 -0.9107824 -0.2358325)
(-3.234982e-09 3.516223e-08 -6.268628e-09)
(-8.387234e-08 2.429375e-08 -2.289954e-09)
(-1.309994e-07 2.760737e-08 -1.14179e-09)
(-1.869275e-07 3.494152e-08 -9.57956e-09)
(-2.419853e-07 3.577874e-08 -9.354359e-09)
(-3.018326e-07 3.934481e-08 -5.711572e-09)
(-3.714074e-07 4.166632e-08 -5.139291e-09)
(-4.442534e-07 4.526668e-08 -3.450382e-09)
(-5.20762e-07 4.929193e-08 -1.138714e-08)
(-6.05241e-07 5.545987e-08 -1.038161e-08)
(-1.896402e-08 1.100834e-07 5.073013e-09)
(-7.031291e-08 1.044193e-07 3.074104e-09)
(-1.324307e-07 9.492074e-08 4.795637e-11)
(-1.849413e-07 9.898097e-08 4.183688e-09)
(-2.431383e-07 1.001135e-07 4.01655e-09)
(-3.033195e-07 1.091439e-07 6.455927e-09)
(-3.672555e-07 1.186266e-07 7.323413e-09)
(-4.372996e-07 1.299704e-07 9.376145e-09)
(-5.152942e-07 1.42713e-07 8.766605e-09)
(-6.033042e-07 1.57747e-07 8.200479e-09)
(-2.312143e-08 1.48663e-07 -8.058191e-09)
(-6.484125e-08 1.497132e-07 -2.648544e-09)
(-1.192939e-07 1.540092e-07 -3.784207e-09)
(-1.741798e-07 1.579608e-07 -1.63525e-09)
(-2.295372e-07 1.668249e-07 -5.895324e-10)
(-2.904816e-07 1.791667e-07 4.23668e-10)
(-3.530054e-07 1.942312e-07 1.470155e-09)
(-4.221868e-07 2.111537e-07 7.682863e-10)
(-4.958302e-07 2.31666e-07 5.299591e-10)
(-5.784754e-07 2.569225e-07 5.477035e-10)
(-2.183154e-08 2.045239e-07 -1.431769e-10)
(-6.486218e-08 2.071754e-07 1.521427e-10)
(-1.14174e-07 2.10211e-07 -7.363979e-10)
(-1.650761e-07 2.180668e-07 6.517e-10)
(-2.173439e-07 2.277648e-07 1.070127e-10)
(-2.731957e-07 2.442272e-07 1.207927e-09)
(-3.314815e-07 2.634477e-07 8.399861e-10)
(-3.953027e-07 2.877187e-07 1.473458e-09)
(-4.648041e-07 3.161284e-07 1.219088e-09)
(-5.415591e-07 3.509381e-07 1.426715e-09)
(-2.135458e-08 2.453552e-07 -2.296001e-09)
(-6.003247e-08 2.500889e-07 -9.836009e-10)
(-1.04289e-07 2.562439e-07 -2.034935e-09)
(-1.515718e-07 2.672245e-07 -4.066751e-10)
(-1.997242e-07 2.813243e-07 -3.191472e-10)
(-2.516631e-07 3.009707e-07 2.554293e-10)
(-3.057413e-07 3.247035e-07 4.472968e-10)
(-3.645922e-07 3.538363e-07 5.887121e-10)
(-4.279787e-07 3.887695e-07 5.910329e-10)
(-4.975277e-07 4.305907e-07 6.618761e-10)
(-1.822829e-08 2.897449e-07 5.958391e-10)
(-5.338775e-08 2.958801e-07 -8.084816e-10)
(-9.544199e-08 3.01402e-07 -7.594944e-10)
(-1.370994e-07 3.145825e-07 -2.124507e-11)
(-1.807986e-07 3.304717e-07 -1.506619e-10)
(-2.270247e-07 3.533387e-07 1.829882e-10)
(-2.75668e-07 3.804414e-07 1.182547e-10)
(-3.281301e-07 4.143779e-07 2.397888e-10)
(-3.846479e-07 4.545566e-07 2.288936e-10)
(-4.458903e-07 5.026993e-07 2.31268e-10)
(-1.632087e-08 3.239939e-07 4.4789e-10)
(-4.970208e-08 3.324014e-07 -8.964955e-10)
(-8.465474e-08 3.395147e-07 -5.979366e-10)
(-1.210274e-07 3.543424e-07 -3.199061e-10)
(-1.596669e-07 3.726774e-07 -1.252126e-10)
(-1.999204e-07 3.979519e-07 2.499155e-11)
(-2.427132e-07 4.283147e-07 1.183103e-10)
(-2.882835e-07 4.656287e-07 2.210916e-10)
(-3.371674e-07 5.099838e-07 2.311133e-10)
(-3.897018e-07 5.625958e-07 2.653947e-10)
(-1.322974e-08 3.554164e-07 6.252756e-10)
(-4.255593e-08 3.646832e-07 -1.053825e-09)
(-7.267865e-08 3.732359e-07 -2.686887e-10)
(-1.032473e-07 3.892961e-07 -4.210544e-10)
(-1.36269e-07 4.096109e-07 -1.331059e-10)
(-1.703498e-07 4.36922e-07 -1.91432e-10)
(-2.066845e-07 4.698073e-07 -6.304024e-11)
(-2.450116e-07 5.09977e-07 -1.240178e-10)
(-2.860361e-07 5.57468e-07 -1.868979e-11)
(-3.293004e-07 6.136171e-07 -1.048169e-10)
(-0.008969354 -0.9996543 -0.0003608006)
(-0.005204929 -0.9852111 -0.001509684)
(0.002867676 -0.991073 -0.002790011)
(0.000540385 -0.9915096 -0.001425774)
(0.0005348592 -0.9922046 -0.001690943)
(0.0007082288 -0.9916358 -0.001087615)
(0.0006096273 -0.9908653 -0.001480103)
(0.0006475972 -0.9905426 -0.0004151284)
(0.001008847 -0.9890616 -0.002492387)
(-0.04408904 -0.9918352 -0.02643123)
(-0.007909294 -1.00222 0.001789406)
(0.0005610323 -0.9947179 0.002446795)
(0.0009162855 -0.9917114 0.003629988)
(0.002078635 -0.9901463 0.0026975)
(5.661672e-05 -0.9923486 0.005016282)
(0.001760668 -0.9924395 0.004777747)
(0.001249761 -0.9910513 0.002695249)
(0.001112192 -0.9917774 0.006138519)
(0.001865851 -0.9894873 0.002723251)
(-0.0230846 -1.014512 -0.0004830702)
(0.01317315 -0.9837467 0.002238682)
(-0.007696861 -0.9948521 0.0003974403)
(0.003351257 -0.9968978 -0.002704759)
(0.0001564288 -0.9956454 0.0001085999)
(0.001805265 -0.9955556 -0.00258803)
(0.001670639 -0.9957392 -0.0001993287)
(0.00234699 -0.99392 -0.002073246)
(0.002211212 -0.9948248 -0.0003091667)
(0.003753326 -0.9912671 -0.0007188247)
(-0.007196869 -0.9868113 0.001793468)
(-0.003728785 -1.003496 0.0004242565)
(0.001845977 -0.9923999 0.001439054)
(0.000141778 -1.002293 0.0009239266)
(0.003468253 -0.9959812 0.001820098)
(0.001109127 -0.9954558 0.001496706)
(0.003646919 -0.9977408 0.002134938)
(0.002305664 -0.9918805 0.0005996941)
(0.003882507 -0.9964388 0.002106208)
(0.003750592 -0.9903537 0.0004629988)
(0.001620057 -0.9986165 0.0008896022)
(0.004873546 -0.9950392 -0.001187277)
(0.001916001 -0.9943957 0.000838386)
(0.002080992 -0.994666 0.0005316331)
(0.001459167 -0.9925642 -0.0006524288)
(-0.000391584 -0.9919288 0.001563255)
(0.002977824 -0.9920148 -0.0001808142)
(0.003187715 -0.9869919 0.0009016457)
(0.005032595 -0.9876008 -0.001226119)
(0.00785209 -0.9805621 0.00119129)
(-0.001585773 -0.9987276 0.0009351678)
(0.007025017 -1.005509 -0.0001002922)
(0.004561685 -0.9977969 0.002309313)
(0.001994354 -1.005597 0.001464568)
(0.00360018 -1.001443 0.002744671)
(0.002129419 -1.001308 0.002619794)
(0.00538312 -1.008319 0.003243824)
(0.00405584 -0.9985101 0.001429862)
(0.007969106 -1.004463 0.001315515)
(0.007666789 -0.9909987 0.000158712)
(0.001784712 -1.000698 -0.004344266)
(0.001110224 -0.9984257 -0.006268651)
(-0.002069806 -0.9788834 -0.002100226)
(-0.001115414 -0.9848655 -0.0008029713)
(0.000587352 -0.9808535 0.0007242628)
(0.002854661 -0.9777996 4.162923e-06)
(0.003094648 -0.9810309 0.001692381)
(0.002404181 -0.9700992 -0.003110498)
(0.004594806 -0.977108 -0.004253579)
(0.00604295 -0.952669 -0.009463903)
(0.01109462 -1.007066 0.001204798)
(0.02663193 -1.008661 -0.001363819)
(0.03685438 -1.002987 0.01431519)
(0.02346694 -1.015868 0.02028625)
(0.01965979 -1.021751 0.02651129)
(0.01345184 -1.010333 0.02131897)
(0.01067986 -1.013743 0.02177089)
(0.003762291 -1.011393 0.01344992)
(0.007223787 -1.017529 0.01589925)
(0.005074373 -0.994994 0.003815558)
(0.03041872 -1.036098 -0.008032042)
(-0.008369488 -1.011 -0.01277831)
(0.007946488 -0.9384121 -0.0006796737)
(0.001223674 -0.9212968 0.005629325)
(-0.007036919 -0.9100168 0.01681037)
(-0.002101558 -0.9020675 0.005646373)
(-0.0009139288 -0.8963622 0.01315361)
(-0.003435256 -0.8951397 -0.002396347)
(0.004836429 -0.895275 0.004941017)
(0.008853628 -0.8851179 0.003378855)
(0.05870886 -1.039949 0.002738193)
(0.07098083 -0.9906478 0.01748507)
(0.1488971 -0.9999825 0.02898404)
(0.07516355 -0.9952447 0.07283858)
(0.03572551 -1.00479 0.1212655)
(0.02977715 -1.021717 0.1259352)
(0.02853693 -1.016186 0.1762335)
(0.0120918 -1.02712 0.153177)
(0.02057107 -1.013459 0.1718249)
(0.01223706 -1.017778 0.2161734)
(0.03593832 -1.111894 0.01475572)
(-0.03282581 -1.096718 0.01396459)
(-0.2143269 -0.9031794 -0.04430069)
(-0.08442617 -0.6512209 -0.09436751)
(-0.02789538 -0.7437817 -0.1637405)
(-0.00226829 -0.7997048 -0.1874322)
(-0.005509999 -0.8001875 -0.2773788)
(-0.002567204 -0.8312013 -0.245954)
(-0.001868119 -0.8211651 -0.2549264)
(0.003970264 -0.8221511 -0.3196784)
(-6.009082e-09 3.091374e-08 -7.024349e-09)
(-7.996901e-08 1.85862e-08 -1.668697e-09)
(-1.256395e-07 2.62327e-08 2.2739e-09)
(-1.859969e-07 2.944877e-08 1.753483e-09)
(-2.430188e-07 2.938915e-08 3.4707e-09)
(-3.069924e-07 3.140934e-08 3.775443e-09)
(-3.741678e-07 3.224699e-08 5.711963e-09)
(-4.455048e-07 3.655416e-08 6.191129e-09)
(-5.256812e-07 3.950001e-08 6.404563e-09)
(-6.169179e-07 4.443321e-08 6.050136e-09)
(-1.550992e-08 1.169979e-07 2.577461e-09)
(-7.489901e-08 1.050721e-07 2.919449e-09)
(-1.325767e-07 9.650483e-08 1.888978e-09)
(-1.877279e-07 9.189215e-08 -8.396599e-10)
(-2.431107e-07 9.046176e-08 -5.602345e-10)
(-3.046871e-07 9.874178e-08 6.63821e-10)
(-3.692937e-07 1.06369e-07 5.573932e-10)
(-4.411919e-07 1.16499e-07 1.406189e-10)
(-5.183239e-07 1.269079e-07 -1.459127e-09)
(-6.056937e-07 1.415634e-07 -1.625096e-09)
(-2.094103e-08 1.482237e-07 -5.482981e-10)
(-6.909614e-08 1.486075e-07 9.770491e-10)
(-1.200522e-07 1.501378e-07 -2.084927e-09)
(-1.741363e-07 1.548384e-07 -2.171442e-10)
(-2.311244e-07 1.610891e-07 -3.183656e-10)
(-2.915879e-07 1.72837e-07 4.455064e-10)
(-3.541021e-07 1.859565e-07 7.851605e-10)
(-4.228366e-07 2.038117e-07 1.301463e-09)
(-4.979696e-07 2.236681e-07 9.878113e-10)
(-5.818576e-07 2.486331e-07 1.459742e-09)
(-2.07958e-08 2.06684e-07 1.906323e-09)
(-6.579874e-08 2.071117e-07 1.700508e-09)
(-1.159383e-07 2.079132e-07 3.493781e-10)
(-1.6643e-07 2.149494e-07 2.467867e-11)
(-2.188289e-07 2.236185e-07 2.03943e-10)
(-2.747984e-07 2.392215e-07 3.955661e-10)
(-3.338163e-07 2.575942e-07 3.862309e-10)
(-3.981729e-07 2.811139e-07 2.692219e-10)
(-4.679761e-07 3.088165e-07 1.932608e-11)
(-5.451675e-07 3.428281e-07 -4.062162e-11)
(-1.985463e-08 2.444868e-07 1.19765e-09)
(-5.923341e-08 2.490004e-07 7.559068e-10)
(-1.051859e-07 2.554515e-07 -8.018368e-10)
(-1.520689e-07 2.656388e-07 1.512511e-10)
(-2.007526e-07 2.796214e-07 -2.549731e-10)
(-2.528788e-07 2.986279e-07 2.883518e-10)
(-3.071405e-07 3.219682e-07 2.381722e-10)
(-3.662524e-07 3.51075e-07 5.043117e-10)
(-4.299855e-07 3.858322e-07 4.613209e-10)
(-4.999527e-07 4.275318e-07 6.284584e-10)
(-1.765e-08 2.905791e-07 1.264079e-09)
(-5.499709e-08 2.940861e-07 9.802354e-10)
(-9.592456e-08 3.004447e-07 5.560135e-10)
(-1.380241e-07 3.134336e-07 2.000514e-10)
(-1.816853e-07 3.294218e-07 4.84859e-11)
(-2.279324e-07 3.519671e-07 8.568514e-11)
(-2.769114e-07 3.788377e-07 1.217891e-11)
(-3.295555e-07 4.125951e-07 1.371825e-12)
(-3.862589e-07 4.524826e-07 -8.568231e-11)
(-4.478094e-07 5.00491e-07 -1.027708e-10)
(-1.54443e-08 3.24895e-07 5.587938e-10)
(-4.781442e-08 3.302206e-07 -2.225875e-10)
(-8.433945e-08 3.388076e-07 -1.151528e-10)
(-1.213834e-07 3.532423e-07 -1.029851e-10)
(-1.599314e-07 3.722106e-07 -1.111243e-10)
(-2.005132e-07 3.97152e-07 4.114706e-11)
(-2.433221e-07 4.276319e-07 4.912827e-11)
(-2.890868e-07 4.648375e-07 9.755749e-11)
(-3.381448e-07 5.092747e-07 1.235121e-10)
(-3.907852e-07 5.618753e-07 9.504074e-11)
(-1.303111e-08 3.589718e-07 -4.18566e-10)
(-4.143846e-08 3.635676e-07 -5.087513e-10)
(-7.208651e-08 3.72997e-07 3.30069e-10)
(-1.035909e-07 3.888359e-07 -2.253387e-10)
(-1.36458e-07 4.093779e-07 2.906966e-11)
(-1.707154e-07 4.366212e-07 -7.28949e-11)
(-2.071292e-07 4.694573e-07 -5.362876e-11)
(-2.455697e-07 5.096546e-07 -5.517137e-11)
(-2.865946e-07 5.570843e-07 -1.174118e-10)