/*--------------------------------*- C++ -*----------------------------------*\
  =========                 |
  \\      /  F ield         | OpenFOAM: The Open Source CFD Toolbox
   \\    /   O peration     | Website:  https://openfoam.org
    \\  /    A nd           | Version:  7
     \\/     M anipulation  |
\*---------------------------------------------------------------------------*/
FoamFile
{
    version     2.0;
    format      ascii;
    class       volScalarField;
    location    "0.1";
    object      Ux;
}
// * * * * * * * * * * * * * * * * * * * * * * * * * * * * * * * * * * * * * //

dimensions      [0 1 -1 0 0 0 0];

internalField   nonuniform List<scalar> 
109978
(
0.4702119
0.4734998
0.4557964
0.446592
0.4346267
0.4227401
0.4672015
0.4804714
0.4606917
0.453454
0.4398364
0.4281229
0.4600063
0.4824269
0.4611639
0.4545212
0.4402523
0.4285991
0.4641601
0.4821219
0.460894
0.4542594
0.4399557
0.4282006
0.4662656
0.4827305
0.4607824
0.4536018
0.4392389
0.4273075
0.468344
0.4831299
0.4608151
0.4531259
0.4386197
0.4266028
0.4699277
0.4835557
0.4609831
0.452684
0.4381477
0.4261282
0.4730679
0.4837826
0.4610911
0.4522792
0.4376665
0.4256226
0.4764966
0.4842561
0.4613149
0.4519602
0.4371982
0.4251154
0.4791531
0.4851492
0.4614044
0.4516804
0.4368353
0.4246841
0.4810493
0.4868186
0.4613425
0.451198
0.436126
0.4238318
0.4822514
0.4872768
0.4609284
0.4506816
0.4354772
0.4231312
0.4831629
0.4873814
0.4605862
0.4502692
0.4348812
0.4224169
0.4838951
0.4873838
0.4602608
0.4498354
0.4342412
0.4216334
0.4844273
0.4872866
0.4598851
0.4493479
0.4335325
0.4207568
0.4848088
0.4871228
0.4594361
0.4487846
0.4327301
0.4197739
0.4850642
0.4869059
0.4589012
0.4481355
0.4318228
0.4186735
0.4852484
0.4866186
0.4582746
0.4473906
0.4307955
0.4174439
0.4853806
0.486309
0.457559
0.4465486
0.4296397
0.4160731
0.4853155
0.4859257
0.4567484
0.4456035
0.428349
0.414551
0.4852204
0.4854975
0.4558493
0.4445522
0.4269101
0.4128594
0.4850327
0.4850268
0.454861
0.4433838
0.4253152
0.4109866
0.4554234
0.4846158
0.4537989
0.4420889
0.4235512
0.4089094
0.4669915
0.4723306
0.4558647
0.4464827
0.4344611
0.4227118
0.4627403
0.4373421
0.4826681
0.4404954
0.4486685
0.4306345
0.4982131
0.4203503
0.4898562
0.4368827
0.4548131
0.4300174
0.507831
0.4112169
0.4789209
0.4308891
0.4454718
0.4269913
0.5008459
0.4099911
0.477088
0.4296719
0.4426769
0.4260005
0.4936517
0.4142791
0.4779493
0.4304241
0.4435373
0.4262418
0.4867824
0.4221664
0.4805412
0.4324605
0.4450049
0.4266162
0.4800865
0.4279974
0.4808323
0.4349316
0.4461966
0.427228
0.4748427
0.4347815
0.4815691
0.4374423
0.4479904
0.4277043
0.4735066
0.4372106
0.4809835
0.4388525
0.4488516
0.4279362
0.4716584
0.4409394
0.4815204
0.4403035
0.4492088
0.4276998
0.4707497
0.4417996
0.4819291
0.4407963
0.4490503
0.427287
0.4704416
0.4434388
0.4829056
0.4411003
0.4490773
0.4267626
0.46975
0.4436722
0.4828225
0.4405089
0.4488559
0.426055
0.468968
0.4449925
0.4831506
0.4402507
0.4482273
0.4252791
0.4683399
0.4454022
0.4831285
0.4396867
0.4479152
0.424492
0.4678832
0.4457815
0.4831253
0.4390688
0.4473186
0.4235718
0.4674299
0.4457787
0.4829311
0.4382464
0.4467788
0.4225637
0.4668829
0.4462617
0.4828591
0.4373063
0.4461997
0.4214415
0.4663028
0.4460601
0.4827696
0.4362171
0.4454106
0.420169
0.4659017
0.4456178
0.4826754
0.4351651
0.4445095
0.4187444
0.4656687
0.4459518
0.4825363
0.4340845
0.4434521
0.4171433
0.4654025
0.4464388
0.4824365
0.4329721
0.442324
0.4153821
0.4358428
0.4468079
0.4823859
0.431783
0.4411562
0.4134516
0.468335
0.4979909
0.46793
0.4562639
0.4431328
0.431695
0.4923218
0.4161809
0.4870115
0.4358623
0.4545372
0.429773
0.3888935
0.4296845
0.5113924
0.4518417
0.4615173
0.4338157
0.3438204
0.4391811
0.5076353
0.4419461
0.4568053
0.4288021
0.4222865
0.4458012
0.5074675
0.4505284
0.4598255
0.4334503
0.4493766
0.4475343
0.5072702
0.447042
0.4566959
0.4295178
0.46361
0.4491393
0.5046719
0.4491096
0.456496
0.4315314
0.4663881
0.4492327
0.5006591
0.4480909
0.4550776
0.4299114
0.4725838
0.4500658
0.4965325
0.4459125
0.4532052
0.4297545
0.4776005
0.453
0.4932739
0.4456403
0.4517247
0.4296604
0.4759433
0.4537162
0.4915159
0.4457889
0.4522185
0.4305042
0.4768931
0.4482959
0.4904157
0.445263
0.4524904
0.4296703
0.4772994
0.4479331
0.4893383
0.44552
0.4520966
0.4290308
0.4748874
0.4471116
0.4897768
0.4458324
0.4514991
0.4285697
0.4748075
0.4450624
0.4898064
0.4462022
0.4515427
0.4280095
0.4750966
0.4478705
0.4912174
0.4458202
0.4506154
0.427229
0.474864
0.4462413
0.4911396
0.4450749
0.4499749
0.4263454
0.4743387
0.4470483
0.4917134
0.4441784
0.449371
0.4254452
0.4740733
0.445884
0.4917488
0.4433485
0.4487561
0.4243488
0.4743576
0.4461693
0.4920463
0.4427965
0.4481187
0.4231263
0.4747626
0.4470353
0.4926655
0.4424274
0.4475597
0.4217756
0.473973
0.4458291
0.4930665
0.4415228
0.4469817
0.4201305
0.4733577
0.4440158
0.4930716
0.4400292
0.4458437
0.4182313
0.4726413
0.4421948
0.4929203
0.4382363
0.4443247
0.4161407
0.4493185
0.5010215
0.4690257
0.4624016
0.4444362
0.4318739
0.5330613
0.4086793
0.4760793
0.4280596
0.446792
0.4267332
0.2404176
0.454367
0.5286567
0.4553584
0.4654373
0.4339539
0.4969071
0.454428
0.5106905
0.4472108
0.4482098
0.4274765
0.4785964
0.4543053
0.504872
0.4472735
0.4576082
0.4298788
0.4816447
0.4490451
0.5011382
0.443651
0.4533494
0.427389
0.4816569
0.4442215
0.4960196
0.440812
0.45146
0.4275647
0.4819825
0.4435719
0.4935562
0.4416962
0.4506742
0.4271937
0.4872769
0.4495175
0.4923558
0.444171
0.4503897
0.4278563
0.4901556
0.4560674
0.492741
0.4461238
0.4492813
0.4277066
0.4874774
0.4566191
0.4892094
0.4437379
0.4460712
0.4265686
0.4862383
0.4597624
0.488081
0.4433847
0.4468286
0.4261246
0.484858
0.4582091
0.4883074
0.4431175
0.4478132
0.4258847
0.4823117
0.4516937
0.4859048
0.4412776
0.446462
0.424487
0.4825261
0.4547634
0.4845064
0.4394538
0.4461065
0.4235225
0.4824399
0.4532686
0.4844366
0.439881
0.4454127
0.4228601
0.4820931
0.4532652
0.4844581
0.4390692
0.4447446
0.421822
0.4815727
0.4510689
0.4845868
0.4392248
0.4433521
0.4208732
0.481372
0.451021
0.4849326
0.4391522
0.4423724
0.4197388
0.481409
0.4502325
0.4852016
0.4386205
0.4416788
0.4184905
0.4814811
0.4500717
0.4859515
0.4380194
0.4416599
0.4171781
0.4818485
0.4491288
0.4854408
0.4365011
0.44093
0.4155731
0.4815384
0.4483148
0.4849364
0.4350817
0.4399372
0.4137818
0.4809925
0.4469086
0.4847063
0.4337992
0.4388763
0.4117722
0.4433317
0.498365
0.471725
0.4622515
0.4447585
0.4331091
0.5396697
0.4016559
0.4743667
0.4269271
0.4415099
0.4250358
0.3250067
0.4519734
0.5226115
0.4533259
0.463748
0.4361821
0.4746668
0.4753069
0.5160373
0.4545894
0.4568155
0.4292751
0.4726781
0.4509243
0.5004261
0.4490628
0.4548899
0.4339661
0.4816727
0.4391003
0.4907143
0.4405578
0.4497623
0.4270186
0.4882473
0.4418864
0.4887558
0.4439214
0.4495441
0.430196
0.4902514
0.4427752
0.4911531
0.4449441
0.4505295
0.4316102
0.4922554
0.4444604
0.49036
0.4457884
0.4498331
0.4300665
0.4942796
0.450606
0.4912102
0.4479254
0.4504943
0.4300751
0.4905043
0.4530086
0.4887628
0.4463679
0.4488217
0.4286285
0.4894233
0.4541742
0.4847195
0.4444158
0.4470909
0.4276027
0.4878205
0.4584953
0.485671
0.4456536
0.4474273
0.4281326
0.485682
0.464623
0.4918871
0.4500314
0.4512205
0.4299844
0.4848409
0.4560351
0.4894916
0.4464667
0.4484945
0.426663
0.4841985
0.4576237
0.4900086
0.4472785
0.4495961
0.4262296
0.4837179
0.4551075
0.4877159
0.4447183
0.4468757
0.4245353
0.4833411
0.4573157
0.4889731
0.4460323
0.4477334
0.4241291
0.4828498
0.4544847
0.4882465
0.4436546
0.4466839
0.4222635
0.4824918
0.4528603
0.486939
0.4425352
0.4456206
0.4208968
0.4822159
0.4498008
0.4855201
0.4411464
0.4443928
0.4192876
0.480107
0.4484589
0.4851373
0.439265
0.4434622
0.4175659
0.4784319
0.4447746
0.4828215
0.4362874
0.4415273
0.4152924
0.476418
0.4437059
0.4814299
0.4345819
0.4399731
0.4131661
0.4427568
0.4918787
0.4684055
0.4561993
0.4445129
0.4321749
0.5377834
0.4014956
0.4744859
0.4269596
0.4419898
0.4251714
0.2950972
0.4512576
0.523527
0.4536139
0.4638606
0.4363142
0.5061358
0.4750264
0.5164755
0.4549613
0.4574508
0.4293841
0.4888518
0.4503552
0.5002733
0.4490458
0.4548681
0.4342434
0.4929957
0.4404303
0.4907682
0.4408038
0.449899
0.427012
0.4951954
0.4421426
0.4883073
0.4436341
0.4494322
0.4301661
0.4965801
0.4426174
0.4908757
0.4450057
0.4504885
0.4316311
0.4985214
0.4441535
0.4901659
0.4458757
0.4498695
0.4300891
0.4996572
0.4508903
0.4911262
0.4479707
0.4505558
0.4300862
0.4955212
0.4536495
0.488718
0.4463122
0.4488345
0.4286473
0.4955356
0.4545951
0.4846654
0.4443493
0.4471147
0.4275927
0.4939358
0.4581319
0.485306
0.4455475
0.4472919
0.4280949
0.4910081
0.4639903
0.491555
0.4499095
0.451129
0.4299154
0.4848571
0.456475
0.4893578
0.4465613
0.4484733
0.4266661
0.4835519
0.4575507
0.4900989
0.4471806
0.4496836
0.4261429
0.4822745
0.4540387
0.4873167
0.4445027
0.4468114
0.4245045
0.4812664
0.4571357
0.489162
0.4459409
0.4478289
0.4238298
0.4795855
0.4525898
0.4882857
0.4434448
0.4466208
0.4222235
0.4780608
0.4507521
0.4860008
0.4422675
0.4452321
0.4207325
0.476963
0.4532031
0.4861631
0.4417664
0.4444764
0.419334
0.4754683
0.4479064
0.4850776
0.4389367
0.443154
0.417448
0.4762821
0.4446438
0.4829475
0.436388
0.4412081
0.4151905
0.4759368
0.4433676
0.481504
0.4347834
0.4395778
0.413102
0.4559884
0.4926169
0.466987
0.4563516
0.4433718
0.4325276
0.5316326
0.4089416
0.4752524
0.4282754
0.4457558
0.4266143
0.3588574
0.4539637
0.5280266
0.4551872
0.4653414
0.4336346
0.4850701
0.4549363
0.5106706
0.4473826
0.4476755
0.4274446
0.4722372
0.4550403
0.5047298
0.4474051
0.4575595
0.4298443
0.4876667
0.447985
0.5009048
0.4435587
0.4532566
0.4273652
0.4915588
0.4434818
0.4957509
0.440693
0.451381
0.4275292
0.4957565
0.4430365
0.4934784
0.4416581
0.4505996
0.4271873
0.497896
0.4489949
0.492254
0.4441216
0.4502538
0.4278153
0.4985651
0.4549266
0.4925592
0.4460548
0.4491554
0.4276739
0.4950632
0.4552456
0.4890079
0.4436906
0.4460153
0.4265651
0.494272
0.4582647
0.4880093
0.4432273
0.4467107
0.4261052
0.4900132
0.4569939
0.48824
0.4430122
0.4477515
0.425927
0.4884374
0.4511955
0.4858261
0.4412629
0.446429
0.4244998
0.4863731
0.4546375
0.4844937
0.4394853
0.4460995
0.4235891
0.4845587
0.4536234
0.4844846
0.4399267
0.4454387
0.4228857
0.4830544
0.4533239
0.4845086
0.439082
0.4449693
0.4218173
0.4817264
0.4519321
0.4847147
0.4392983
0.4435434
0.4208804
0.4804332
0.4513018
0.485027
0.4391693
0.4426431
0.4197598
0.4780088
0.4506165
0.4857394
0.4389187
0.44222
0.4185754
0.4755635
0.4491801
0.4860785
0.4379823
0.4418917
0.417232
0.4754425
0.4487974
0.485452
0.4365475
0.4411563
0.415714
0.4742871
0.4482726
0.4848739
0.4352433
0.440227
0.413952
0.4733636
0.4469197
0.4847349
0.4339031
0.4390281
0.4120677
0.458051
0.4909283
0.4663337
0.4635762
0.4453902
0.4344231
0.5078112
0.4154953
0.4869445
0.4351625
0.4543988
0.429673
0.3642128
0.4294766
0.511419
0.4517282
0.4614681
0.433862
0.4504815
0.4392354
0.5076851
0.441892
0.4567777
0.4287604
0.4624137
0.4453891
0.5074761
0.4504995
0.4597854
0.4335414
0.4708428
0.447894
0.5072021
0.447075
0.4567138
0.4295036
0.4777247
0.4494515
0.5045767
0.4491403
0.4565282
0.431553
0.482021
0.4492462
0.5006067
0.448056
0.4551151
0.4298934
0.4850731
0.4500956
0.4964642
0.4458695
0.453212
0.4297371
0.4864747
0.453041
0.4932047
0.4456025
0.4517402
0.42965
0.4822723
0.4538108
0.4914253
0.4457413
0.4522029
0.430505
0.4810512
0.4486771
0.4903582
0.4452243
0.4525097
0.4296852
0.4809881
0.4480351
0.4892707
0.4454627
0.4520848
0.4290197
0.4824703
0.4471702
0.4897593
0.4457991
0.4514495
0.4285454
0.4802142
0.4450556
0.4897514
0.4461914
0.4514777
0.4279913
0.4785605
0.4476715
0.4911937
0.4458298
0.4505593
0.4272132
0.4772522
0.4461684
0.4910068
0.4451137
0.4498835
0.4263217
0.4766005
0.4470011
0.4916876
0.4442486
0.4493531
0.4254307
0.4756566
0.4459901
0.4916943
0.4434257
0.4486976
0.4243385
0.4746279
0.4474736
0.4921413
0.4429682
0.4480801
0.4231274
0.4726139
0.4475795
0.4926463
0.4424881
0.4475581
0.4217472
0.4714618
0.4460561
0.4930056
0.4415571
0.4467863
0.4200744
0.47039
0.4440301
0.4930153
0.4399955
0.4457165
0.4181634
0.469252
0.4421068
0.4927509
0.4383348
0.4436953
0.4159216
0.4681002
0.5031797
0.4636291
0.462302
0.4430008
0.4310042
0.4675433
0.4379924
0.4833649
0.4404222
0.4487751
0.4305879
0.4078826
0.4202128
0.4896707
0.4369933
0.4547925
0.4300092
0.4073302
0.4113252
0.4788963
0.4309199
0.4454651
0.4269628
0.4161987
0.4101027
0.4771007
0.4296457
0.4426978
0.4259757
0.4303244
0.4142765
0.4779361
0.4303949
0.4435212
0.4262165
0.43677
0.4221075
0.4805186
0.4324208
0.4449956
0.4265886
0.4442416
0.4280447
0.4808282
0.4349121
0.4462049
0.427203
0.452695
0.4347897
0.481557
0.4374185
0.4479959
0.4276786
0.4573495
0.4372374
0.480974
0.4388307
0.4488519
0.4279086
0.4564708
0.4409738
0.4815031
0.4402828
0.4492237
0.4276713
0.4583558
0.441825
0.4819085
0.4407658
0.4490513
0.4272574
0.4594132
0.443369
0.4828613
0.4410884
0.4490246
0.426739
0.4592336
0.4436372
0.4827681
0.4405001
0.448785
0.4260372
0.4595914
0.4449925
0.4831195
0.4402671
0.4481785
0.4252706
0.4603877
0.4454132
0.483098
0.4396913
0.447865
0.424489
0.4607719
0.445811
0.4831085
0.4390781
0.4472599
0.4235745
0.4610442
0.4457942
0.4829394
0.4382666
0.4467427
0.4225741
0.4613498
0.4462482
0.4828644
0.4373132
0.4461343
0.4214568
0.4614981
0.4455167
0.4827274
0.4361818
0.4453592
0.4201931
0.4614169
0.445528
0.482636
0.4351365
0.4444183
0.4187778
0.4612556
0.4458253
0.4824972
0.4340528
0.4432848
0.4171876
0.4610019
0.4463111
0.482414
0.4329452
0.4421336
0.4154519
0.4358456
0.4467125
0.4824175
0.4318111
0.4405932
0.4135659
0.5171154
0.5470949
0.5236954
0.5186874
0.5007966
0.4879099
0.5095442
0.4902987
0.5052384
0.46177
0.4622537
0.4432074
0.4320958
0.4990004
0.4719793
0.5080751
0.4639222
0.465121
0.4455383
0.4342985
0.4917715
0.4617579
0.5090845
0.4647844
0.4653111
0.4464791
0.4340828
0.4940442
0.4607658
0.5102339
0.4626076
0.4662573
0.4468638
0.4342725
0.4961231
0.4619674
0.5106029
0.4614569
0.4682306
0.4457782
0.4342751
0.4976061
0.4636134
0.5102151
0.4602989
0.4672307
0.4448064
0.4335068
0.4963566
0.4670732
0.5095246
0.4597788
0.4659515
0.4439469
0.4327331
0.4929272
0.4700571
0.5091083
0.4597182
0.4647203
0.4427802
0.4317041
0.4933052
0.4709704
0.50842
0.4601508
0.4636306
0.4417253
0.4307032
0.4933702
0.4709233
0.508201
0.4605165
0.462709
0.4406543
0.4296957
0.4933827
0.4701576
0.5087734
0.4607957
0.4619826
0.4397059
0.4288232
0.4936427
0.4700865
0.5088168
0.4605674
0.4613489
0.438847
0.4280199
0.4939272
0.4701875
0.5087914
0.4602001
0.4608451
0.4381044
0.4272269
0.4939151
0.4697101
0.508946
0.4597543
0.4603005
0.437421
0.4263999
0.493778
0.469068
0.5088834
0.4593668
0.4598159
0.4366633
0.425477
0.4938134
0.4686543
0.5087967
0.4588732
0.4592709
0.4358211
0.4244557
0.4939207
0.468282
0.5086511
0.4583116
0.4586793
0.4348498
0.4233258
0.4940329
0.4678769
0.5084962
0.4576081
0.4580066
0.4337496
0.4220692
0.494022
0.4676887
0.5083542
0.4567885
0.4572462
0.4325153
0.420683
0.4940347
0.4676103
0.5082884
0.4559181
0.4563862
0.4311615
0.4191643
0.4941188
0.467506
0.5083256
0.4550088
0.4554349
0.4296673
0.4174848
0.494198
0.4672972
0.5083947
0.4540552
0.4543736
0.4280452
0.415638
0.4942524
0.4467589
0.5084967
0.4529273
0.4531422
0.4262767
0.4136478
0.5075874
0.509301
0.4354194
0.5237031
0.4882921
0.4888157
0.5095678
0.5116791
0.5036197
0.5249972
0.4988575
0.4773945
0.4990381
0.5088208
0.4411236
0.5084115
0.4959821
0.4768543
0.4917896
0.5039603
0.4495742
0.5093661
0.4937617
0.4745242
0.4940554
0.5054939
0.4571906
0.5098092
0.4923886
0.4725619
0.496127
0.5062568
0.4669302
0.5091628
0.4916835
0.4704338
0.4976035
0.5073469
0.4791415
0.5103655
0.4895938
0.4674996
0.4963515
0.5111994
0.4983504
0.5154904
0.4884172
0.4655217
0.4929145
0.513042
0.4986397
0.5134248
0.4881078
0.4638493
0.4933078
0.5120643
0.4989775
0.510472
0.4902049
0.4631615
0.4933701
0.5112668
0.4985318
0.5096087
0.49329
0.4631238
0.4933824
0.5115248
0.4980357
0.5097796
0.4947618
0.4634279
0.4936279
0.5119902
0.4975535
0.5097206
0.4954887
0.4635285
0.493915
0.5121209
0.4977735
0.5087503
0.4964376
0.4635506
0.4939057
0.5116112
0.4979833
0.5075608
0.4973813
0.4631061
0.4937789
0.5113299
0.4981119
0.5066525
0.4978247
0.4626085
0.4938119
0.511343
0.4981627
0.5060109
0.4979631
0.4620278
0.4939263
0.5112944
0.4982615
0.5053961
0.4978918
0.4615095
0.4940361
0.5111815
0.4983986
0.5048524
0.4977268
0.4609874
0.4940442
0.5111977
0.4985006
0.5044564
0.4973147
0.4604114
0.4940414
0.5112455
0.4985311
0.5041658
0.4966876
0.4595813
0.4941167
0.5112161
0.4986538
0.5037024
0.4958051
0.4587716
0.4941939
0.5111605
0.4988409
0.5031562
0.4946483
0.4852722
0.4942477
0.5111574
0.4990004
0.5026115
0.4860965
0.4928819
0.5017721
0.4911084
0.4914539
0.541649
0.5027363
0.4434163
0.5109996
0.4841979
0.4843117
0.5119005
0.4713414
0.4222124
0.5176071
0.4804101
0.4794468
0.5118673
0.4555206
0.4194285
0.5170143
0.4776155
0.4170771
0.5207044
0.458544
0.4796739
0.5366389
0.480413
0.4179593
0.5094209
0.4735415
0.4818268
0.516724
0.4865576
0.4212521
0.5174397
0.4820707
0.4846506
0.5108089
0.5009425
0.4418232
0.5118089
0.4932492
0.4910173
0.5406015
0.484539
0.4921732
0.5023964
0.5118398
0.4353089
0.5237175
0.5081683
0.5230956
0.5099558
0.4900529
0.5115998
0.518999
0.5121112
0.4879066
0.4703386
0.5333701
0.5024007
0.5083573
0.4634762
0.4573043
0.5097126
0.4929263
0.4875038
0.4532051
0.4437543
0.500263
0.4777753
0.4809115
0.4391143
0.4307026
0.4844297
0.4647252
0.4266878
0.4709603
0.5117856
0.5035103
0.5250543
0.4885046
0.4887985
0.5088268
0.4411268
0.5083522
0.4988895
0.4773848
0.5039731
0.4495724
0.5093344
0.4959494
0.4768364
0.5054618
0.4571877
0.5098023
0.4937222
0.4745108
0.5062354
0.4669265
0.509163
0.4923674
0.4725532
0.5073497
0.4791337
0.5103584
0.4916665
0.4704407
0.5130361
0.498634
0.5134266
0.4884245
0.4655186
0.5120579
0.4989817
0.5104413
0.4881115
0.4638223
0.5112506
0.4985414
0.5095807
0.4902226
0.463126
0.5115167
0.4980574
0.5097384
0.4932969
0.4631009
0.5119655
0.4975941
0.5096725
0.4947595
0.463406
0.5120915
0.4977961
0.5087247
0.4954691
0.463518
0.5115873
0.497994
0.5075518
0.496426
0.4635424
0.5113164
0.4981128
0.5066504
0.497374
0.4630955
0.5113262
0.498161
0.5060105
0.4978219
0.4626004
0.5112848
0.4982562
0.5054018
0.4979585
0.4620133
0.5111806
0.4983866
0.5048812
0.497886
0.4614973
0.5112872
0.4984367
0.5045468
0.4977211
0.4609755
0.5113081
0.4985118
0.5042053
0.4973203
0.4604079
0.5112701
0.4986427
0.5037436
0.4966961
0.4595802
0.5111921
0.4988333
0.5031957
0.4958043
0.4587883
0.5111529
0.4989947
0.5026567
0.4946499
0.4852566
0.5257538
0.4451605
0.5108438
0.5188822
0.51656
0.5231189
0.5097664
0.4900298
0.5333725
0.5025607
0.5471567
0.5142118
0.4877932
0.4703352
0.5099724
0.4930826
0.5246022
0.5085397
0.4635004
0.4573757
0.5004215
0.4778704
0.5188632
0.4875255
0.453295
0.4437745
0.4845331
0.4647797
0.5008653
0.4809295
0.4391643
0.4307417
0.4710209
0.4879491
0.4267291
0.5354302
0.4430862
0.5258473
0.3926585
0.554712
0.4534577
0.5435057
0.4254126
0.5551308
0.4649836
0.5419966
0.4402156
0.5515433
0.4808852
0.5390913
0.4547284
0.5485915
0.4937211
0.5356463
0.4624158
0.549335
0.5008757
0.5359904
0.4662196
0.5475065
0.5012411
0.5342323
0.4724301
0.5461694
0.5011058
0.5363736
0.4730212
0.5460375
0.4997098
0.5394341
0.4724431
0.5416757
0.4999202
0.5466352
0.4722822
0.5399145
0.4989462
0.5476542
0.4720688
0.5392411
0.4977482
0.5479489
0.4722282
0.5384349
0.4964679
0.5479405
0.4723606
0.5372602
0.4950134
0.5476078
0.4729219
0.5364031
0.4934887
0.5467211
0.4734332
0.5355382
0.4920208
0.5457034
0.473354
0.534725
0.4904092
0.5447322
0.4740351
0.5340357
0.4889162
0.5437909
0.4745263
0.5334181
0.4875458
0.5428946
0.4749316
0.5328624
0.4864049
0.541998
0.4752857
0.5323848
0.4855282
0.541039
0.4756485
0.531846
0.4849859
0.5402515
0.4760911
0.5312274
0.4846151
0.5397208
0.4765439
0.5194279
0.5190405
0.5428225
0.5404994
0.5435306
0.5519265
0.5413214
0.5452577
0.5468921
0.542053
0.5526
0.5442944
0.5477961
0.5456186
0.518978
0.5247211
0.5232518
0.5199643
0.5111866
0.4983463
0.5154972
0.489606
0.4675312
0.4814033
0.5094644
0.4883246
0.4489718
0.5191581
0.4029296
0.5373356
0.4307866
0.5243679
0.5212224
0.5492851
0.4241526
0.5426583
0.4283013
0.545207
0.4332986
0.5563737
0.4631547
0.542135
0.4457055
0.5526339
0.4757651
0.5375313
0.4570232
0.5489463
0.4882916
0.5364724
0.463009
0.5491654
0.5007843
0.5363218
0.4690043
0.5482819
0.5037875
0.5339321
0.4723716
0.546779
0.5043869
0.5365558
0.4721287
0.5420672
0.5017848
0.5432753
0.4719783
0.5358893
0.5000587
0.5475513
0.4707268
0.5346669
0.5000591
0.5477104
0.4706329
0.5344234
0.4988878
0.5477247
0.4706233
0.533958
0.4976618
0.5476034
0.4707587
0.5330211
0.496108
0.5467851
0.4708792
0.5318285
0.4945433
0.5457732
0.4710031
0.5308563
0.4928746
0.5447579
0.4708537
0.530117
0.4911037
0.5437504
0.4710484
0.5295775
0.4896532
0.5428645
0.4713999
0.5291371
0.4882136
0.5420319
0.471755
0.5286881
0.4869296
0.541236
0.4720629
0.5282909
0.4858031
0.54053
0.4725773
0.5279712
0.4848988
0.5398367
0.4729698
0.5275377
0.4842655
0.5391811
0.4731784
0.4898209
0.4837746
0.5269799
0.5188089
0.5321811
0.5495956
0.5462699
0.5528261
0.547788
0.5469649
0.5444908
0.5505874
0.5519138
0.5479034
0.5531706
0.5403481
0.5356343
0.5207227
0.5149831
0.5269719
0.4606283
0.4816497
0.5095338
0.4888379
0.4582998
0.5177684
0.4067727
0.5369009
0.4307849
0.4819321
0.5220971
0.4798936
0.5062729
0.4743299
0.5051441
0.4857018
0.5093677
0.4785391
0.5201032
0.4881791
0.5041278
0.4705904
0.4953406
0.4712192
0.5089765
0.4608393
0.5062665
0.4692238
0.4899941
0.4565566
0.4847976
0.4618994
0.4954591
0.4517929
0.4963994
0.4614377
0.4789345
0.446422
0.4707106
0.4465493
0.483726
0.4372135
0.4817793
0.4459397
0.4639129
0.4246194
0.4692389
0.4336183
0.5349936
0.4432998
0.5256018
0.3925961
0.5491258
0.4241737
0.5426538
0.4286133
0.5547208
0.453495
0.5434806
0.4254084
0.5451815
0.4332974
0.5563713
0.4631591
0.5551496
0.4649718
0.5420043
0.440232
0.5421394
0.4457253
0.5526624
0.4757764
0.5515493
0.4808917
0.5390947
0.4547311
0.5375369
0.4570286
0.5489439
0.4883019
0.5485861
0.4937189
0.5356294
0.462418
0.5364665
0.4629993
0.5491448
0.500779
0.549325
0.500861
0.5359693
0.4662084
0.5363137
0.4689947
0.5482958
0.5037839
0.546138
0.5011425
0.5364345
0.4730207
0.5365448
0.4721289
0.5420831
0.5018051
0.5460366
0.4997154
0.5394575
0.4724377
0.5432518
0.4719696
0.5358703
0.5000721
0.5416882
0.4999257
0.5466312
0.4722887
0.5475474
0.4707227
0.5346488
0.5000612
0.5399084
0.4989456
0.5476463
0.4720703
0.5477048
0.4706029
0.5343941
0.4988749
0.539234
0.4977215
0.5479371
0.4722335
0.5477193
0.4706219
0.5339335
0.4976539
0.5384198
0.4964562
0.5479284
0.4723634
0.5475916
0.470748
0.5329906
0.4960874
0.5372548
0.4949892
0.5475861
0.4729424
0.546781
0.4708885
0.5318246
0.4945283
0.5364065
0.4934844
0.5467211
0.4734483
0.5457734
0.4709982
0.5308473
0.4928603
0.5447586
0.4708654
0.5301246
0.4911124
0.5347275
0.4904166
0.5447429
0.4740475
0.5437499
0.4710517
0.5295696
0.4896605
0.5340448
0.4889129
0.5437862
0.4745456
0.5428693
0.4714102
0.5291599
0.4882439
0.5334467
0.4875677
0.5429058
0.4749529
0.5420363
0.4717614
0.5287094
0.4869544
0.5328752
0.486404
0.5419941
0.4753046
0.5412364
0.4720716
0.5283053
0.4858191
0.5323894
0.4855421
0.5410507
0.4756702
0.5405296
0.4725975
0.5279613
0.4849251
0.531837
0.4850017
0.5402392
0.4761161
0.5398275
0.4730101
0.5275308
0.4842961
0.5312126
0.4846538
0.5397205
0.4765881
0.5391712
0.5012081
0.4838288
0.5269661
0.4322097
0.5227557
0.521917
0.4793406
0.4814872
0.5060499
0.4785474
0.5200304
0.4881193
0.5042301
0.4610752
0.5064958
0.4695089
0.4902546
0.4518635
0.4965215
0.4616496
0.479096
0.4372854
0.4818571
0.4460203
0.4639874
0.4246664
0.4692672
0.4336759
0.4502036
0.5062906
0.479868
0.5021881
0.4335066
0.5051092
0.4856179
0.4992936
0.4417199
0.504563
0.4901033
0.4972767
0.4536889
0.5033907
0.4936751
0.4969429
0.4649262
0.5027112
0.4964676
0.4966452
0.473471
0.503224
0.4968681
0.4971724
0.4776625
0.5020085
0.4971678
0.4981051
0.4806407
0.5015982
0.4974966
0.4977868
0.4832009
0.5000567
0.4975924
0.497872
0.4852132
0.4991996
0.4974541
0.4975885
0.4866563
0.4989635
0.4975594
0.4974977
0.48726
0.4987755
0.4976672
0.4975098
0.4878728
0.4985872
0.4977779
0.4975831
0.4884483
0.4984419
0.4978519
0.4976213
0.4889346
0.4983462
0.4979141
0.4976318
0.4894516
0.4982188
0.4979408
0.4976697
0.4897078
0.4981612
0.4979143
0.4977297
0.4897932
0.4980872
0.4978556
0.4977737
0.4898589
0.4980237
0.4978159
0.4977835
0.48991
0.4979158
0.4977893
0.497779
0.4899598
0.4978129
0.4977731
0.4977628
0.4900139
0.4977273
0.4977362
0.497724
0.4900631
0.4976415
0.4976992
0.497678
0.4901047
0.5115281
0.4781651
0.5172223
0.4738982
0.5152444
0.5224301
0.5104621
0.5270868
0.5190918
0.4766155
0.5261035
0.5106293
0.5076417
0.4736418
0.473295
0.5157999
0.5234658
0.5207014
0.4818381
0.4713061
0.4895181
0.4669867
0.5010088
0.4530282
0.5039495
0.481472
0.5184529
0.5141914
0.4987815
0.4411841
0.5045469
0.4815745
0.5008071
0.4502917
0.5054949
0.488156
0.4993535
0.4623977
0.5046442
0.4935751
0.4983165
0.4716991
0.5041939
0.4970528
0.4980435
0.4768938
0.5034324
0.4986974
0.4982221
0.4798844
0.5020528
0.4978614
0.497923
0.4824147
0.5007523
0.4972053
0.4981204
0.4843971
0.5000592
0.4971606
0.4974604
0.4862779
0.4985299
0.4966519
0.4977968
0.4868691
0.4982649
0.4969399
0.4979236
0.4874972
0.4980719
0.4970091
0.497916
0.4881116
0.4979191
0.4969914
0.4978593
0.4885817
0.497769
0.4969847
0.4979288
0.4890865
0.4976706
0.4970531
0.4979516
0.4894028
0.4975922
0.4971158
0.4979013
0.4894529
0.4974915
0.4971339
0.4977703
0.4894975
0.4974176
0.4970954
0.4976796
0.4895264
0.4974144
0.4970751
0.4976358
0.4895585
0.4974557
0.4970646
0.4976552
0.4895944
0.497548
0.4970863
0.4977048
0.4896336
0.4976635
0.4971191
0.4977309
0.4896808
0.4977132
0.497149
0.4978055
0.4897342
0.497184
0.4977664
0.4782746
0.5005875
0.4937732
0.4975269
0.472318
0.5131257
0.4961326
0.5068309
0.5110587
0.4719745
0.5057382
0.5145032
0.5211304
0.4747084
0.5026112
0.4784101
0.432959
0.519852
0.4802376
0.4769766
0.4739209
0.4837858
0.43804
0.4335938
0.4427883
0.433608
0.4411516
0.4368949
0.4349803
0.4462968
0.4323858
0.4580705
0.4346478
0.4692444
0.4286659
0.4247999
0.4228248
0.4337001
0.5059016
0.4797621
0.4336509
0.5024735
0.4987878
0.4411884
0.5045484
0.4815863
0.5355387
0.4920062
0.5456949
0.4733608
0.4976562
0.4895951
0.4975474
0.4970825
0.4978128
0.4977734
0.4900153
0.4977671
0.4977341
0.4896823
0.4977161
0.4971455
0.49764
0.4976983
0.4901074
0.4976803
0.4978079
0.4897359
0.4971825
0.4977677
0.4368408
0.508207
0.4313747
0.5351352
0.4971679
0.4529761
0.5096008
0.5048145
0.5077736
0.4709171
0.4740446
0.5050114
0.4855388
0.5091714
0.4706491
0.4955425
0.4714391
0.5091224
0.4567016
0.4849626
0.4620966
0.495686
0.4465536
0.4707913
0.4465801
0.4838513
0.4324343
0.4581082
0.4346734
0.4693105
0.5015718
0.4352373
0.5066067
0.4828423
0.4998412
0.443951
0.5057575
0.4858132
0.4995148
0.4566906
0.5048644
0.4908829
0.4985196
0.4671762
0.5041338
0.4952964
0.4976693
0.4748589
0.5040557
0.4979985
0.4979875
0.4784762
0.5031087
0.4983689
0.4977986
0.4811801
0.5017755
0.497477
0.4980181
0.4834218
0.5006062
0.4970714
0.4975854
0.4854277
0.4988061
0.4971393
0.4975997
0.486537
0.4986569
0.4968593
0.4973878
0.4871694
0.4985118
0.4969869
0.4975818
0.4878129
0.4984456
0.4972253
0.4978327
0.4883453
0.4983073
0.4974574
0.498125
0.4888272
0.4982912
0.497776
0.4980933
0.4893596
0.4981911
0.4978318
0.4979456
0.4894589
0.4980907
0.4978367
0.4978215
0.4895171
0.4980446
0.4978201
0.4976863
0.4895597
0.4980102
0.497756
0.4976212
0.4895943
0.4980239
0.4977094
0.497633
0.4896317
0.498088
0.4976958
0.4976812
0.4896725
0.4982402
0.4976963
0.4977135
0.4897135
0.4983551
0.4976929
0.497691
0.4897609
0.4983979
0.4976906
0.4759416
0.5104127
0.4814513
0.5167115
0.4699634
0.5113686
0.4981743
0.4707669
0.5090597
0.4693127
0.5022738
0.4727623
0.5280919
0.4847143
0.5070819
0.4815481
0.4689218
0.4975108
0.5012421
0.534238
0.4723904
0.5475739
0.4719323
0.4826289
0.4510501
0.4687512
0.5058848
0.4844995
0.5017887
0.4557657
0.4690199
0.5115665
0.5071118
0.4815096
0.500022
0.4357587
0.5050426
0.487745
0.4974723
0.4467365
0.5041363
0.4923178
0.4972131
0.4598087
0.5030087
0.4953484
0.4970537
0.4696002
0.5029835
0.4971651
0.49721
0.4759885
0.5023769
0.497036
0.4978121
0.4791597
0.5016294
0.4973355
0.4977143
0.4820125
0.500938
0.4976876
0.4979878
0.484154
0.4997809
0.4978951
0.4976168
0.4861292
0.4995015
0.4978345
0.4973926
0.4868816
0.4994158
0.4978824
0.4974385
0.4874951
0.4992735
0.4979438
0.4975639
0.488143
0.4990359
0.4979575
0.4975797
0.4886449
0.4989503
0.4980117
0.4975256
0.4891487
0.4988534
0.4980547
0.4973319
0.489649
0.4988068
0.498066
0.4972704
0.4897312
0.4987739
0.4979691
0.4973309
0.4898035
0.4987618
0.4978855
0.4973945
0.4898565
0.4987336
0.4978384
0.497483
0.4899005
0.4986956
0.4978311
0.4975286
0.489944
0.4986192
0.4978268
0.4975024
0.4899943
0.4985388
0.4978129
0.497461
0.4900412
0.4985075
0.4978071
0.4974402
0.4900807
0.5106786
0.4793187
0.5205316
0.4745359
0.5162493
0.4749419
0.5243426
0.5096619
0.4756942
0.5106852
0.4775769
0.5148182
0.4769636
0.5112232
0.4893908
0.5128964
0.5077956
0.5203627
0.4792865
0.464693
0.4679604
0.4770851
0.4733697
0.4641133
0.4648513
0.4758889
0.4739921
0.4627859
0.466869
0.472554
0.4662307
0.4629617
0.4608733
0.4709948
0.4343712
0.4277654
0.430155
0.434353
0.4218601
0.4181897
0.5016358
0.4352647
0.4828918
0.5065124
0.5070947
0.4815273
0.5000929
0.4357582
0.4976353
0.4896321
0.4977005
0.4980915
0.4986959
0.4978332
0.4975315
0.4899449
0.4976855
0.4896731
0.4976902
0.4982417
0.4985385
0.4978141
0.4974622
0.4900433
0.4976938
0.4897624
0.4976865
0.4983995
0.4942749
0.4920354
0.4942738
0.5112963
0.5112606
0.4920252
0.4842909
0.4947571
0.5391544
0.4976399
0.4976527
0.4901551
0.4976417
0.5124075
0.5391372
0.4613228
0.4562792
0.4563318
0.4657929
0.4216198
0.4297333
0.4215433
0.4246157
0.5007986
0.4502898
0.5055013
0.4881497
0.5045578
0.4900974
0.4536902
0.497269
0.4980426
0.4768929
0.498693
0.5034369
0.5032206
0.4968677
0.4776609
0.4971693
0.5015764
0.497465
0.4977719
0.483215
0.4978529
0.4885829
0.497768
0.4969822
0.4984428
0.497857
0.4889388
0.4976172
0.4979494
0.4894023
0.4975938
0.4971127
0.4979458
0.4897085
0.4976681
0.4982203
0.4979041
0.4894528