/*--------------------------------*- C++ -*----------------------------------*\
  =========                 |
  \\      /  F ield         | OpenFOAM: The Open Source CFD Toolbox
   \\    /   O peration     | Website:  https://openfoam.org
    \\  /    A nd           | Version:  7
     \\/     M anipulation  |
\*---------------------------------------------------------------------------*/
FoamFile
{
    version     2.0;
    format      ascii;
    class       volScalarField;
    location    "0.1";
    object      Ux;
}
// * * * * * * * * * * * * * * * * * * * * * * * * * * * * * * * * * * * * * //

dimensions      [0 1 -1 0 0 0 0];

internalField   nonuniform List<scalar> 
89125
(
-0.02612633
-0.019984
-0.0232563
-0.02757005
-0.0256246
-0.02779984
-0.02111836
-0.02671105
-0.005314052
-0.007630797
-0.00444111
-0.003177282
-0.001602584
-0.003631588
0.001235927
0.001128218
0.0003951473
-0.00336009
0.009539419
0.006298179
0.007846947
0.001791306
0.0004252309
0.0014919
0.001910817
0.001858543
0.00360061
-0.003803064
-0.007666776
0.0003422008
-0.0002162953
0.001491613
-0.002015206
0.002488747
0.00176255
0.001676381
0.004322742
-0.003703972
0.0004007574
0.0001483112
0.0001849694
0.002318469
-0.001775079
0.002144214
0.001412037
0.00165828
0.004625542
-0.003782533
0.0009142972
0.002605053
0.001192593
0.003741757
0.0002538286
0.005020088
0.002579499
0.002785792
0.00555483
-0.003936525
-0.001660782
-0.004044808
-0.002538922
0.0004956534
-0.003323477
0.005030592
0.001942919
0.001578445
0.00562719
-0.00671797
0.004632601
0.006124137
0.004629143
0.008967989
0.002533573
0.01065683
0.006284908
0.0001018361
0.005290082
-0.005206902
0.004195752
-0.01223529
-0.004746006
-0.006790543
-0.01188072
-0.003457589
-0.007896948
0.00111734
-0.000424624
3.307749e-05
0.002852095
0.01595792
0.006742932
0.003073391
0.00348865
-0.002355317
-0.007768066
0.0273328
0.002582648
-0.006987787
0.03231832
0.01515641
0.01074295
0.01167014
0.01146976
0.01414774
-0.0375825
0.08212315
0.027488
-0.0007663592
0.0002789513
-0.001770471
0.0002878052
-5.577633e-05
0.006847898
0.004645167
0.008598458
0.005996896
-5.067929e-08
-1.010052e-07
-1.630761e-07
-2.147082e-07
-2.769512e-07
-3.415426e-07
-4.134808e-07
-4.931301e-07
-5.862903e-07
-7.417219e-08
-1.257961e-07
-1.808283e-07
-2.35809e-07
-2.957198e-07
-3.597984e-07
-4.301127e-07
-5.07074e-07
-5.908796e-07
-8.098916e-08
-1.181197e-07
-1.740093e-07
-2.262672e-07
-2.870225e-07
-3.489509e-07
-4.174051e-07
-4.928871e-07
-5.738895e-07
-7.650608e-08
-1.134671e-07
-1.654201e-07
-2.148565e-07
-2.69383e-07
-3.279616e-07
-3.914203e-07
-4.600913e-07
-5.356033e-07
-7.120917e-08
-1.034998e-07
-1.523774e-07
-1.984827e-07
-2.501176e-07
-3.034488e-07
-3.619213e-07
-4.247421e-07
-4.937297e-07
-5.712575e-08
-9.18442e-08
-1.375284e-07
-1.794926e-07
-2.258926e-07
-2.738669e-07
-3.26068e-07
-3.82138e-07
-4.42939e-07
-4.749047e-08
-8.540887e-08
-1.204401e-07
-1.594844e-07
-1.992132e-07
-2.417038e-07
-2.869476e-07
-3.355481e-07
-3.877822e-07
-3.809168e-08
-7.475261e-08
-1.024018e-07
-1.36264e-07
-1.697395e-07
-2.060051e-07
-2.440945e-07
-2.849044e-07
-3.280478e-07
-0.01318138
-0.006608868
0.0002516633
-0.003355489
0.0005383859
0.000773486
0.0006375831
0.0001957003
0.0007327696
-0.04098805
0.005772038
0.008469373
0.00541571
0.002595831
0.0008963487
0.002087606
0.001706026
0.001954762
0.00184521
-0.01474385
0.01484565
-0.003167334
0.000937944
0.0007580051
-0.0001731577
0.0009528896
0.002576797
0.002008285
0.003480568
-0.007186448
-0.003486214
0.001575193
0.000175222
0.002192272
0.001771089
0.002591075
0.002270569
0.003260731
0.003043616
0.00432475
0.00280217
0.0004682075
0.001977802
0.001670055
0.001184612
0.002436436
0.003267202
0.003420542
0.003932647
-0.00336247
0.001359388
0.002629791
0.003449072
0.003098587
0.003599692
0.002486555
0.003575097
0.004553248
0.004790441
-0.002501573
-0.0002284755
-0.002801802
-0.0009331025
0.002011166
0.004049703
-1.221126e-05
0.002550486
0.003631577
0.00349064
0.0008489234
0.006664305
0.01101415
0.009501855
0.01015117
0.007757031
0.003572694
0.004647879
0.002941553
0.00318824
0.00584644
-0.003365554
-0.00580071
-0.002433174
-0.002463371
-0.002611742
-0.006952859
-0.0008795415
0.0007531935
-0.0003998479
0.006510462
0.01229576
0.01703151
0.02307248
0.00266681
0.008210556
0.001856195
-0.003651107
0.003653099
-0.002093928
0.02920204
0.02848205
-0.03191097
-0.01015151
-0.004636894
0.003405743
-0.005044132
-0.01230808
0.04172381
-0.03186194
-6.627438e-09
-7.915959e-08
-1.303473e-07
-1.801977e-07
-2.410486e-07
-3.047527e-07
-3.741469e-07
-4.515848e-07
-5.377918e-07
-6.296584e-07
-2.527501e-09
-7.479774e-08
-1.360331e-07
-1.904867e-07
-2.436018e-07
-3.03437e-07
-3.709392e-07
-4.423575e-07
-5.179675e-07
-5.988912e-07
-1.723474e-09
-7.389628e-08
-1.195417e-07
-1.738819e-07
-2.292283e-07
-2.894716e-07
-3.500134e-07
-4.188221e-07
-4.916945e-07
-5.75337e-07
1.410013e-08
-6.825607e-08
-1.159192e-07
-1.655233e-07
-2.164325e-07
-2.720272e-07
-3.30024e-07
-3.938622e-07
-4.623008e-07
-5.38481e-07
1.06567e-08
-6.419511e-08
-1.053109e-07
-1.529854e-07
-1.995629e-07
-2.511714e-07
-3.044559e-07
-3.627844e-07
-4.258991e-07
-4.952837e-07
7.084629e-09
-5.654998e-08
-9.630285e-08
-1.378771e-07
-1.807865e-07
-2.266097e-07
-2.749148e-07
-3.271721e-07
-3.833373e-07
-4.4442e-07
2.287386e-10
-4.936302e-08
-8.508408e-08
-1.214883e-07
-1.596383e-07
-1.997787e-07
-2.42225e-07
-2.876008e-07
-3.36308e-07
-3.886797e-07
-5.586955e-09
-4.229156e-08
-7.295178e-08
-1.035401e-07
-1.363494e-07
-1.702232e-07
-2.064222e-07
-2.446388e-07
-2.854671e-07
-3.287733e-07
-0.01112295
0.001629859
0.004409544
0.00182899
0.001142601
0.0006116187
0.0006826039
0.0006367349
0.0005730198
-0.04749011
-0.01434183
0.0001520608
0.0009167433
0.002290725
0.000414832
0.001066342
0.0009025549
0.0007579028
0.001482863
-0.02000199
0.01486993
-0.008343643
0.002731949
-0.001709646
0.0001332649
0.0009308208
0.0008580084
-5.192341e-05
0.002396425
-0.01211967
-0.004730416
0.001371851
-0.0003309261
0.002393786
-0.002487381
0.00290828
-4.021225e-05
0.001601164
0.003538458
0.002376329
0.001547547
-0.0005781926
0.00180845
0.001874584
-0.003365953
0.002060116
-0.0001612061
0.00267341
0.00356155
-0.0001750342
0.001669887
0.003486811
0.002168259
0.002562628
0.0004438618
0.005292486
0.002136864
0.004959988
0.004107548
9.123535e-05
-0.00307755
0.002000351
-0.002636601
0.001378137
0.000646352
0.004900838
0.002027884
0.00425249
0.004342103
0.009437488
0.02526858
0.03193852
0.01566532
0.01549651
0.007000294
0.01410034
0.003950855
0.01016733
0.005963251
0.02471663
0.0009064445
0.02036629
-0.0122901
-0.002004071
-0.01458118
0.007730432
-0.002584018
0.01153957
0.004435671
0.02437961
0.06831186
0.05260365
0.02785183
0.01606178
0.01026322
0.03776075
0.005811199
0.0329139
0.003564054
0.04121369
-0.01118374
-0.1435515
-0.05255257
-0.04233334
-0.02542261
-0.04115194
-0.001292056
-0.06210039
0.001814305
-3.234982e-09
-8.387234e-08
-1.309994e-07
-1.869275e-07
-2.419853e-07
-3.018326e-07
-3.714074e-07
-4.442534e-07
-5.20762e-07
-6.05241e-07
-1.896402e-08
-7.031291e-08
-1.324307e-07
-1.849413e-07
-2.431383e-07
-3.033195e-07
-3.672555e-07
-4.372996e-07
-5.152942e-07
-6.033042e-07
-2.312143e-08
-6.484125e-08
-1.192939e-07
-1.741798e-07
-2.295372e-07
-2.904816e-07
-3.530054e-07
-4.221868e-07
-4.958302e-07
-5.784754e-07
-2.183154e-08
-6.486218e-08
-1.14174e-07
-1.650761e-07
-2.173439e-07
-2.731957e-07
-3.314815e-07
-3.953027e-07
-4.648041e-07
-5.415591e-07
-2.135458e-08
-6.003247e-08
-1.04289e-07
-1.515718e-07
-1.997242e-07
-2.516631e-07
-3.057413e-07
-3.645922e-07
-4.279787e-07
-4.975277e-07
-1.822829e-08
-5.338775e-08
-9.544199e-08
-1.370994e-07
-1.807986e-07
-2.270247e-07
-2.75668e-07
-3.281301e-07
-3.846479e-07
-4.458903e-07
-1.632087e-08
-4.970208e-08
-8.465474e-08
-1.210274e-07
-1.596669e-07
-1.999204e-07
-2.427132e-07
-2.882835e-07
-3.371674e-07
-3.897018e-07
-1.322974e-08
-4.255593e-08
-7.267865e-08
-1.032473e-07
-1.36269e-07
-1.703498e-07
-2.066845e-07
-2.450116e-07
-2.860361e-07
-3.293004e-07
-0.008969354
-0.005204929
0.002867676
0.000540385
0.0005348592
0.0007082288
0.0006096273
0.0006475972
0.001008847
-0.04408904
-0.007909294
0.0005610323
0.0009162855
0.002078635
5.661672e-05
0.001760668
0.001249761
0.001112192
0.001865851
-0.0230846
0.01317315
-0.007696861
0.003351257
0.0001564288
0.001805265
0.001670639
0.00234699
0.002211212
0.003753326
-0.007196869
-0.003728785
0.001845977
0.000141778
0.003468253
0.001109127
0.003646919
0.002305664
0.003882507
0.003750592
0.001620057
0.004873546
0.001916001
0.002080992
0.001459167
-0.000391584
0.002977824
0.003187715
0.005032595
0.00785209
-0.001585773
0.007025017
0.004561685
0.001994354
0.00360018
0.002129419
0.00538312
0.00405584
0.007969106
0.007666789
0.001784712
0.001110224
-0.002069806
-0.001115414
0.000587352
0.002854661
0.003094648
0.002404181
0.004594806
0.00604295
0.01109462
0.02663193
0.03685438
0.02346694
0.01965979
0.01345184
0.01067986
0.003762291
0.007223787
0.005074373
0.03041872
-0.008369488
0.007946488
0.001223674
-0.007036919
-0.002101558
-0.0009139288
-0.003435256
0.004836429
0.008853628
0.05870886
0.07098083
0.1488971
0.07516355
0.03572551
0.02977715
0.02853693
0.0120918
0.02057107
0.01223706
0.03593832
-0.03282581
-0.2143269
-0.08442617
-0.02789538
-0.00226829
-0.005509999
-0.002567204
-0.001868119
0.003970264
-6.009082e-09
-7.996901e-08
-1.256395e-07
-1.859969e-07
-2.430188e-07
-3.069924e-07
-3.741678e-07
-4.455048e-07
-5.256812e-07
-6.169179e-07
-1.550992e-08
-7.489901e-08
-1.325767e-07
-1.877279e-07
-2.431107e-07
-3.046871e-07
-3.692937e-07
-4.411919e-07
-5.183239e-07
-6.056937e-07
-2.094103e-08
-6.909614e-08
-1.200522e-07
-1.741363e-07
-2.311244e-07
-2.915879e-07
-3.541021e-07
-4.228366e-07
-4.979696e-07
-5.818576e-07
-2.07958e-08
-6.579874e-08
-1.159383e-07
-1.6643e-07
-2.188289e-07
-2.747984e-07
-3.338163e-07
-3.981729e-07
-4.679761e-07
-5.451675e-07
-1.985463e-08
-5.923341e-08
-1.051859e-07
-1.520689e-07
-2.007526e-07
-2.528788e-07
-3.071405e-07
-3.662524e-07
-4.299855e-07
-4.999527e-07
-1.765e-08
-5.499709e-08
-9.592456e-08
-1.380241e-07
-1.816853e-07
-2.279324e-07
-2.769114e-07
-3.295555e-07
-3.862589e-07
-4.478094e-07
-1.54443e-08
-4.781442e-08
-8.433945e-08
-1.213834e-07
-1.599314e-07
-2.005132e-07
-2.433221e-07
-2.890868e-07
-3.381448e-07
-3.907852e-07
-1.303111e-08
-4.143846e-08
-7.208651e-08
-1.035909e-07
-1.36458e-07
-1.707154e-07
-2.071292e-07
-2.455697e-07
-2.865946e-07
-3.301175e-07
-0.009358826
-0.003631887
0.002153294
0.001568853
0.0009881916
0.001070499
0.0005237757
0.000762779
0.0008422299
-0.04533934
-0.01253998
0.001395176
0.0002025428
0.005143889
0.0006450742
0.003408031
0.0004198603
0.001312486
0.002571608
-0.0276252
0.01279532
-0.01506505
0.002423421
-0.001995795
-0.001175362
0.001721053
-0.0001212317
0.00098919
0.002617839
-0.01307192
-0.002812448
0.000381711
-0.00124813
0.002513835
-0.002518503
0.003661597
-0.0003828761
0.002166096
0.002877429
0.003682693
0.004062622
1.495307e-05
0.001507514
0.002768017
-0.003061918
0.002235909
-0.0007113663
0.001838527
0.00156833
-0.0001168268
0.00403555
0.003651507
0.002060165
0.002505671
0.0001820175
0.005363566
0.0001654795
0.005248246
0.002325902
0.003965502
-0.0003254422
0.002815711
0.0001072097
0.002312382
-0.001245547
-0.0002310338
-0.001519472
0.003843417
-0.002285937
0.01152198
0.03579897
0.04137041
0.02700788
0.01376045
0.004586776
0.00612182
-0.002279033
0.003486524
0.004641532
0.02456348
0.006874547
0.01383597
0.003694225
-0.009861973
-0.001216727
0.008128273
7.62986e-05
0.02266649
0.01110398
0.03174722
0.08398186
0.1613458
0.1227839
0.07451493
0.09957537
0.05958386
0.03878621
0.1063855
0.02651141
0.03014248
-0.07223333
-0.2614816
-0.1680087
-0.07693431
-0.09113835
-0.03123906
0.009470965
-0.1311479
-0.006286693
-1.080342e-08
-8.234808e-08
-1.285843e-07
-1.884006e-07
-2.429986e-07
-3.069334e-07
-3.737532e-07
-4.471864e-07
-5.263248e-07
-6.155438e-07
-1.67282e-08
-7.580753e-08
-1.314713e-07
-1.870363e-07
-2.429609e-07
-3.047406e-07
-3.689481e-07
-4.404793e-07
-5.1885e-07
-6.061629e-07
-1.97553e-08
-6.672448e-08
-1.198947e-07
-1.73114e-07
-2.309411e-07
-2.919177e-07
-3.547835e-07
-4.239579e-07
-4.993036e-07
-5.827754e-07
-2.045003e-08
-6.654384e-08
-1.152056e-07
-1.663883e-07
-2.193161e-07
-2.756355e-07
-3.347271e-07
-3.993218e-07
-4.694676e-07
-5.468982e-07
-1.921913e-08
-5.906982e-08
-1.047312e-07
-1.518338e-07
-2.011484e-07
-2.535039e-07
-3.082017e-07
-3.674364e-07
-4.314934e-07
-5.015744e-07
-1.759655e-08
-5.50093e-08
-9.565843e-08
-1.380265e-07
-1.819313e-07
-2.285801e-07
-2.776204e-07
-3.304314e-07
-3.873146e-07
-4.489344e-07
-1.494771e-08
-4.799465e-08
-8.406394e-08
-1.211489e-07
-1.600994e-07
-2.007277e-07
-2.438502e-07
-2.896301e-07
-3.388207e-07
-3.916076e-07
-1.296603e-08
-4.144302e-08
-7.188499e-08
-1.035322e-07
-1.364632e-07
-1.710046e-07
-2.073927e-07
-2.45946e-07
-2.870923e-07
-3.30497e-07
-0.01016419
-0.004927459
0.002959841
0.0007220857
0.0007226146
0.000710528
0.000722231
0.0007517722
0.0007929249
-0.04254105
-0.01037712
0.0002838083
-0.0001206821
0.002496468
-9.291541e-05
0.001803989
0.0006521407
0.001190238
0.001128027
-0.01892946
0.01435371
-0.009486198
0.003466477
-0.0008040173
0.0002833359
0.001103743
0.0009883639
0.001594148
0.002547009
-0.005370856
-0.003046693
0.0001810966
-0.0001071759
0.002559606
-0.0005681675
0.002598716
0.0007876788
0.002366238
0.002364384
0.0006601572
0.005618712
0.001450481
0.002440205
0.002907693
-0.002149751
0.001584781
-0.001381744
0.001768545
0.001736977
-0.003621601
0.006669591
0.004677777
0.002085294
0.002164579
0.0004713789
0.003978164
-0.0003569885
0.005043938
0.002136144
-0.001237115
0.002456157
0.00348862
-0.0006651148
0.001730337
-0.001031657
0.001246289
-0.002248038
0.002749354
-0.001121809
0.01400603
0.03498637
0.04374007
0.02720994
0.01418303
0.005557784
0.003022965
-0.002830976
0.00304052
0.004472596
0.03048185
-0.005059085
0.0119964
0.0002985032
-0.01141018
-0.002418879
0.002206879
-0.002417325
0.02141981
0.01058936
0.05172745
0.07980942
0.1574019
0.1161068
0.07421122
0.1005266
0.05530484
0.03296107
0.1088482
0.02318659
0.0361369
-0.0489271
-0.2655274
-0.1622809
-0.07906078
-0.08967681
-0.03051857
0.02466321
-0.1283497
0.001097137
4.28866e-10
-8.420916e-08
-1.299698e-07
-1.883783e-07
-2.42649e-07
-3.081218e-07
-3.736221e-07
-4.474948e-07
-5.263223e-07
-6.163798e-07
-1.732907e-08
-7.750935e-08
-1.30795e-07
-1.880708e-07
-2.42658e-07
-3.045433e-07
-3.688176e-07
-4.406935e-07
-5.189246e-07
-6.064281e-07
-1.809468e-08
-6.699515e-08
-1.203852e-07
-1.731947e-07
-2.312733e-07
-2.915808e-07
-3.547058e-07
-4.241755e-07
-4.992505e-07
-5.83053e-07
-1.908635e-08
-6.608091e-08
-1.149483e-07
-1.664539e-07
-2.192316e-07
-2.755644e-07
-3.347547e-07
-3.993064e-07
-4.695681e-07
-5.469091e-07
-1.834862e-08
-5.916729e-08
-1.047842e-07
-1.519151e-07
-2.012201e-07
-2.535699e-07
-3.081373e-07
-3.675581e-07
-4.314789e-07
-5.016395e-07
-1.515002e-08
-5.521204e-08
-9.518938e-08
-1.380307e-07
-1.819154e-07
-2.284763e-07
-2.776504e-07
-3.303459e-07
-3.873037e-07
-4.48937e-07
-1.48047e-08
-4.807617e-08
-8.401103e-08
-1.212264e-07
-1.600459e-07
-2.007418e-07
-2.437624e-07
-2.896203e-07
-3.388202e-07
-3.915389e-07
-1.291906e-08
-4.14522e-08
-7.183538e-08
-1.034655e-07
-1.364896e-07
-1.708299e-07
-2.073873e-07
-2.458044e-07
-2.86972e-07
-3.304854e-07
-0.009680167
-0.001663276
0.002661345
0.00150691
0.001184221
0.0009132752
0.0008265071
0.0007092194
-0.0007781923
-0.04819087
-0.01275914
0.00384345
0.0004668062
0.004042069
0.001302869
0.002175058
0.001198611
0.001241447
0.001863465
-0.02622317
0.01493878
-0.01030426
0.003101366
-0.0007889705
0.001361138
0.002266478
0.001903026
0.003459951
0.003546148
-0.01538268
-0.002302197
2.168547e-05
-0.0006375168
0.002430839
0.0001657089
0.003330753
0.002545297
0.004807095
0.005627957
0.005025411
0.003131413
0.0002321325
0.001762223
0.001745619
0.0001782268
0.002716059
0.002815131
0.005925187
0.007241014
0.003917723
0.001538315
0.002768746
0.001158029
0.00286081
0.002114722
0.003387066
0.004546658
0.008890274
0.007714973
0.007865225
0.001198849
-0.003303253
-9.858328e-05
-0.0004109828
0.002901606
0.003350125
0.001805215
0.00525118
0.006182658
0.008763769
0.03026473
0.03352622
0.0239535
0.01774289
0.01351128
0.01160781
0.001275689
0.006326213
0.006080553
0.02386509
0.01067636
0.006566618
0.0051891
-0.01037259
-0.004115924
0.0003510653
-0.008691461
0.006554776
0.009942145
0.04009391
0.07561918
0.1445579
0.07908369
0.03320398
0.0279307
0.02585441
0.01135813
0.02195113
0.01696846
0.03641762
-0.05304957
-0.2110953
-0.08646134
-0.0309416
-0.007130728
-0.007561323
0.002219422
-0.004749925
0.004446506
-1.090541e-08
-7.815368e-08
-1.279382e-07
-1.865289e-07
-2.428218e-07
-3.065429e-07
-3.734176e-07
-4.457886e-07
-5.259887e-07
-6.156248e-07
-1.629695e-08
-7.276196e-08
-1.319499e-07
-1.871153e-07
-2.426332e-07
-3.045293e-07
-3.689151e-07
-4.406769e-07
-5.190155e-07
-6.05964e-07
-2.22402e-08
-6.789189e-08
-1.203073e-07
-1.737073e-07
-2.307415e-07
-2.917545e-07
-3.537873e-07
-4.226543e-07
-4.982541e-07
-5.816657e-07
-2.157277e-08
-6.650748e-08
-1.161811e-07
-1.662942e-07
-2.188124e-07
-2.747072e-07
-3.336972e-07
-3.982318e-07
-4.680844e-07
-5.452388e-07
-2.00216e-08
-5.896002e-08
-1.053766e-07
-1.517856e-07
-2.007591e-07
-2.526637e-07
-3.071209e-07
-3.660817e-07
-4.301017e-07
-4.99917e-07
-1.741464e-08
-5.48531e-08
-9.59066e-08
-1.379153e-07
-1.81624e-07
-2.279456e-07
-2.768881e-07
-3.295988e-07
-3.863258e-07
-4.478155e-07
-1.558227e-08
-4.809038e-08
-8.437985e-08
-1.211474e-07
-1.599266e-07
-2.003363e-07
-2.43391e-07
-2.890321e-07
-3.382153e-07
-3.908498e-07
-1.29389e-08
-4.156807e-08
-7.214461e-08
-1.03569e-07
-1.364148e-07
-1.707651e-07
-2.070906e-07
-2.455732e-07
-2.866655e-07
-3.300431e-07
-0.008654397
-0.006200456
0.0006222215
0.001469142
-0.0003762186
0.000656752
0.002102542
0.002203072
0.000161134
-0.04436587
-0.01076842
-0.002731297
-0.001175914
0.003051474
-6.325943e-05
0.001392843
0.001042185
0.0001728086
-0.001432177
-0.02362575
0.01804913
-0.01097985
0.004066179
0.0005912395
0.0006773909
0.001580231
0.0008144017
0.002685956
0.003784455
-0.01432296
-0.001076986
0.0003728553
0.001248547
0.002864057
0.0002966016
0.002295054
0.0009308825
0.002655842
0.002336482
0.009365927
-0.001983585
0.003663515
0.002876043
0.003190933
8.611204e-05
0.002156643
-0.0004221839
0.003230267
0.003469538
0.0155596
-0.00650445
0.008420273
0.00167856
0.002112311
0.001864602
0.003621584
0.001960584
0.006123493
0.004576268
0.01118762
-0.00352733
0.003626283
-0.002837782
-0.0005877477
0.002712968
0.003830939
0.001445037
0.005315458
0.005464216
0.003319636
0.02416817
0.02474354
0.0167166
0.01088302
0.0128211
0.008742577
-0.0008271205
0.01066051
0.00724783
0.01125651
-0.01104469
-0.007387064
-0.00991098
-0.0178368
0.0002485015
-0.007083699
-0.007664587
0.01861476
0.006769772
0.0241828
0.06006318
0.0475236
0.03023825
0.01099208
0.03503154
0.01740276
-0.001644821
0.0515713
0.005223923
0.04027084
-0.003716236
-0.1471492
-0.05306557
-0.0417455
-0.04887651
-0.009199794
-0.002896194
-0.05858487
0.0042208
-1.217158e-08
-8.508602e-08
-1.308637e-07
-1.864269e-07
-2.423398e-07
-3.012809e-07
-3.697342e-07
-4.421167e-07
-5.228556e-07
-6.085559e-07
-1.904797e-08
-7.188931e-08
-1.319083e-07
-1.856563e-07
-2.41838e-07
-3.036029e-07
-3.665582e-07
-4.37127e-07
-5.16664e-07
-6.036603e-07
-2.523085e-08
-7.000555e-08
-1.207935e-07
-1.754548e-07
-2.301974e-07
-2.905844e-07
-3.521806e-07
-4.212883e-07
-4.958061e-07
-5.789768e-07
-2.136381e-08
-6.702207e-08
-1.144204e-07
-1.655311e-07
-2.173539e-07
-2.73017e-07
-3.314789e-07
-3.953125e-07
-4.652267e-07
-5.416936e-07
-2.194805e-08
-6.182296e-08
-1.049654e-07
-1.518609e-07
-1.999268e-07
-2.514918e-07
-3.056079e-07
-3.644067e-07
-4.279926e-07
-4.975294e-07
-1.752542e-08
-5.499176e-08
-9.564835e-08
-1.372996e-07
-1.80947e-07
-2.268886e-07
-2.757547e-07
-3.280542e-07
-3.84725e-07
-4.458839e-07
-1.542241e-08
-4.97817e-08
-8.50165e-08
-1.207351e-07
-1.597624e-07
-1.996719e-07
-2.426873e-07
-2.881559e-07
-3.372098e-07
-3.896851e-07
-1.288381e-08
-4.277371e-08
-7.277957e-08
-1.032451e-07
-1.363342e-07
-1.701295e-07
-2.066281e-07
-2.447607e-07
-2.858967e-07
-3.29169e-07
-0.002569846
0.001695532
-0.001659832
-0.004567683
-0.0009321466
-0.00414582
-0.002920284
-0.00443165
-0.01424342
-0.04035291
-0.009722533
0.004138432
-0.0001236665
0.002811155
0.001534374
0.001691555
0.001276956
0.0005535884
0.001046316
-0.03373643
0.005443696
0.006838859
0.002577296
0.00248126
0.002251071
0.003579302
0.00388879
0.004940296
0.0001397214
-0.01021047
0.01430449
0.0009957223
0.003928332
0.00167061
0.002810059
0.002512888
0.003436376
0.002777162
0.004717803
0.007097524
-0.002590331
0.003022187
0.001995453
0.002618815
0.00247091
0.002360974
0.004024198
0.003918776
0.003845882
0.005409682
-0.01142383
0.004702128
0.002152284
0.004547563
0.003240959
0.002382197
0.004417009
0.003462844
0.005007737
0.03280815
0.004187057
-0.001797314
0.002216558
0.0007781144
0.002406284
-0.001394958
0.006015239
0.002887853
0.003039602
0.007965557
0.002472848
0.01000174
0.01101902
0.006996104
0.00677381
-0.0009913099
0.009440315
0.001796647
8.023919e-05
0.002468799
-0.003851169
-0.01810591
-0.001695347
-0.006607635
-0.007032453
-0.01446536
0.01317083
-0.00369973
-0.003277852
0.01365841
0.007634996
0.009670754
0.01159289
0.003348626
0.003038697
-0.005664799
0.009206453
-0.001825439
-0.003580122
0.04151436
0.05954239
-0.0345382
-0.03864267
-0.018648
-0.01058383
-0.008837711
-0.00354025
-0.01534053
-0.01280793
-2.208329e-09
-7.846212e-08
-1.263667e-07
-1.833563e-07
-2.415312e-07
-3.050986e-07
-3.762114e-07
-4.520412e-07
-5.340444e-07
-6.242346e-07
-7.264037e-09
-7.905366e-08
-1.350673e-07
-1.882487e-07
-2.432408e-07
-2.999218e-07
-3.693766e-07
-4.403185e-07
-5.183606e-07
-6.033053e-07
-1.196286e-08
-7.229142e-08
-1.200583e-07
-1.729384e-07
-2.285198e-07
-2.856394e-07
-3.490459e-07
-4.166688e-07
-4.932917e-07
-5.753897e-07
-3.356659e-09
-6.669262e-08
-1.156463e-07
-1.645908e-07
-2.163456e-07
-2.71892e-07
-3.299253e-07
-3.938004e-07
-4.627201e-07
-5.387754e-07
-9.629215e-09
-6.152281e-08
-1.059332e-07
-1.521341e-07
-1.994879e-07
-2.509365e-07
-3.042457e-07
-3.624669e-07
-4.26205e-07
-4.952186e-07
-5.210466e-09
-5.570981e-08
-9.622154e-08
-1.373383e-07
-1.808143e-07
-2.264226e-07
-2.749403e-07
-3.271533e-07
-3.8341e-07
-4.444699e-07
-8.868348e-09
-4.833647e-08
-8.561644e-08
-1.208177e-07
-1.597412e-07
-1.994515e-07
-2.422692e-07
-2.874657e-07
-3.364517e-07
-3.886988e-07
-3.994405e-09
-4.07113e-08
-7.350796e-08
-1.030549e-07
-1.364129e-07
-1.700289e-07
-2.063704e-07
-2.444799e-07
-2.854634e-07
-3.286409e-07
0.009723322
0.002577845
0.01259374
0.01210619
0.005495063
-0.003111822
0.001142801
-0.003271519
0.009018349
0.0008273751
-5.379474e-05
0.001658355
0.0002746738
0.001701076
0.0001206467
0.0013872
-0.001075103
-1.249824e-05
-0.002358481
-0.03694644
0.0030486
0.003211572
0.002376655
0.002052087
0.001674371
0.003046082
0.00340077
0.00504061
0.006359404
-0.005027675
-0.0001273395
0.001130107
0.001400991
0.00133298
0.001992988
0.002049089
0.001613688
0.002947189
0.002676558
0.003468833
0.005351646
0.0001171761
0.002582683
0.00146288
0.002146431
0.002234094
0.002275815
0.003447053
0.004222224
0.01782113
0.005251459
0.003325238
0.003143893
0.002463121
0.003078224
0.003354205
0.002833379
0.004522664
0.005344494
0.01409661
0.0002308975
0.0003830757
0.001283033
-0.001127066
0.002214902
0.003865259
0.001929065
0.003542981
0.005378081
0.01448758
0.001225221
0.009053632
0.01065609
0.003815357
0.008557939
0.006223243
0.00288513
0.003497182
0.004751337
-0.007497156
-0.006958162
-0.008357543
-0.003705124
-0.01308168
-0.00572423
-0.01208688
0.001279285
0.005214904
-0.004789655
-0.03398169
-0.007663917
0.01326614
0.001694112
0.00281486
-0.00243513
-0.009189402
0.01791853
0.01322743
-0.01256328
0.01268112
0.0121768
0.0005206548
-0.0208355
-0.01528585
-0.002416123
-0.03471865
0.02321659
0.0007677993
-0.02023505
0.0007600511
-0.002731561
-0.003195195
-0.003430592
-0.0178691
8.048052e-05
-0.0007325422
-0.001461212
-0.005388848
-6.957027e-09
-4.917538e-08
-9.923896e-08
-1.598821e-07
-2.193725e-07
-2.800784e-07
-3.47579e-07
-4.217792e-07
-5.019806e-07
-5.879678e-07
8.030755e-09
-7.927162e-08
-1.251298e-07
-1.803595e-07
-2.344095e-07
-2.949573e-07
-3.607097e-07
-4.314585e-07
-5.074889e-07
-5.914662e-07
3.193171e-09
-7.868275e-08
-1.170021e-07
-1.732145e-07
-2.26706e-07
-2.86727e-07
-3.481556e-07
-4.159966e-07
-4.906449e-07
-5.741472e-07
-2.624475e-09
-7.151892e-08
-1.132652e-07
-1.642837e-07
-2.146871e-07
-2.69871e-07
-3.280734e-07
-3.916882e-07
-4.603561e-07
-5.358352e-07
2.805434e-09
-6.701668e-08
-1.039196e-07
-1.513908e-07
-1.985084e-07
-2.497417e-07
-3.03274e-07
-3.614289e-07
-4.246802e-07
-4.937217e-07
-3.178549e-09
-5.536381e-08
-9.58392e-08
-1.369256e-07
-1.801405e-07
-2.255937e-07
-2.74053e-07
-3.260234e-07
-3.821766e-07
-4.429307e-07
-1.626476e-08
-4.076759e-08
-8.799682e-08
-1.187998e-07
-1.599355e-07
-1.986089e-07
-2.417721e-07
-2.867385e-07
-3.356319e-07
-3.877812e-07
1.166582e-08
-3.527893e-08
-7.515113e-08
-1.018238e-07
-1.364304e-07
-1.694198e-07
-2.059229e-07
-2.437881e-07
-2.847971e-07
-3.278505e-07
-0.01147444
0.007734402
-0.03272151
-0.01738505
-0.006134367
-3.950308e-08
-0.001124453
-3.655138e-08
-0.004056869
-5.338901e-08
-1.116206e-07
-0.002358442
-0.005360724
-5.199168e-08
-8.893345e-08
-0.03454034
-1.140217e-07
-1.856661e-07
-0.002742872
-0.005771747
-1.058277e-07
-1.527441e-07
-0.009665822
-1.800347e-07
-2.39138e-07
-0.005063201
-0.004175906
-1.539594e-07
-2.078704e-07
-0.01446911
-2.415705e-07
-3.058114e-07
-0.006092228
-0.004485236
-2.129941e-07
-2.571244e-07
0.01170546
-3.126746e-07
-3.875858e-07
-0.001983192
-0.003168616
-2.775156e-07
-3.210369e-07
0.004328847
-3.908692e-07
-4.745748e-07
-0.002001522
-0.0006542664
-3.397704e-07
-3.927923e-07
0.03815579
-4.741824e-07
-5.706879e-07
-0.001523317
-0.009306162
-4.109968e-07
-4.725072e-07
-0.00821965
-5.753092e-07
-6.828145e-07
-0.0009893073
-0.000782202
-4.955968e-07
-5.550207e-07
0.001713418
-6.751945e-07
-8.645958e-07
-0.0003815726
0.002664907
-5.832418e-07
-6.537526e-07
-5.227502e-08
-5.268379e-08
-1.343815e-08
-4.290981e-08
-8.417972e-09
-4.238179e-08
-2.581616e-08
-6.101845e-08
8.726804e-09
-1.450368e-08
-3.520393e-09
-4.425856e-08
-3.06187e-09
-4.839098e-08
-1.864873e-09
-1.720217e-08
-1.081446e-08
-5.659136e-08
4.323956e-08
-7.465307e-08
7.478213e-09
-5.619242e-09
-9.635501e-09
-6.256778e-08
4.557482e-08
-6.47646e-08
9.735352e-09
-5.805373e-10
-1.105772e-08
-6.429928e-08
4.620026e-08
-8.484697e-08
9.853608e-09
1.744928e-08
-2.046654e-08
-6.979759e-08
1.166653e-08
-9.383677e-08
1.026604e-08
3.046778e-08
-2.484777e-08
-7.784815e-08
5.638503e-09
-9.933872e-08
1.579418e-08
4.311806e-08
-2.481016e-08
-7.851009e-08
-0.01421925
-0.02398245
-0.00843582
-0.00891761
-0.0288773
0.0006464708
0.01146844
-3.661686e-08
-0.001139113
-3.556798e-08
-0.01360062
-0.05045012
-0.00325175
-0.01009377
-0.02407895
0.003154504
-0.000639991
-3.233389e-08
-0.005663477
-2.990868e-08
-0.01074817
-0.04856379
0.002589486
-0.0108247
-0.04298059
0.003026182
-0.003490548
-3.9931e-08
-0.01611398
3.659756e-09
-3.606841e-08
-0.01183876
-0.0486295
0.003142415
-0.01004785
-0.04765413
0.002385584
-0.0060481
-3.851872e-08
-0.01869028
2.101367e-09
-3.868187e-08
-0.01131151
-0.02368495
0.003700862
-0.01200089
-0.02255661
0.002982556
-0.007754829
-7.326015e-10
-2.764453e-08
-0.01645637
8.209146e-12
-3.52008e-08
-0.01244576
-0.05083024
0.003830523
-0.01203451
-0.02644732
-0.0006306711
-0.00647791
-4.516721e-08
-0.006701617
-1.813787e-09
-2.731575e-08
-0.01390239
-0.04652572
-0.002277189
-0.01573234
-0.02632803
-0.01105121
-0.008604063
2.681233e-09
-3.156381e-08
-0.005524147
1.241415e-09
-2.945291e-08
-0.0001594276
-0.03340689
-0.007905764
-0.01414061
-0.02040008
-0.01887145
-0.002916555
-9.104471e-09
-3.908295e-08
0.01232726
-4.049483e-09
-3.589172e-08
-0.002572642
-0.01151916
-0.01861645
-0.01827272
-0.001394158
-0.003807151
-0.002768896
-0.02877951
0.00574316
-0.002137112
0.001886958
0.001179041
-0.02316184
0.0159941
0.009129928
0.0009389872
-9.361751e-05
-0.02242168
0.01962651
-0.003798079
0.009438524
0.006541634
0.03206727
-0.02102324
0.0196713
-0.005519418
-0.007432218
-0.00613983
-0.02252978
-0.01897827
0.02189797
-0.006278928
0.001013314
0.006943783
0.02715822
-0.01939934
0.02111326
-0.007762635
0.0003514518
-0.008105191
-0.02669591
-0.01899334
0.02418175
0.006706509
0.004677268
0.003977409
-0.0147474
0.02707089
-0.0007458474
0.01436057
0.02041747
-0.01556788
0.02892625
-0.01962848
-0.03412601
0.0373516
-0.01096918
0.02456419
-0.001226675
-0.006893585
0.04774555
-0.0185918
-8.383254e-05
0.01594902
-0.004010352
0.003263462
0.007705796
-0.001215085
-0.01941259
-0.008008412
0.02372284
-0.02282898
0.009433243
-0.02460925
-0.03237682
-0.01420865
-0.02840448
0.02595937
-0.02214976
0.02675523
-0.009768357
-0.01681779
0.02409106
-0.02679826
-0.007821533
-0.008078772
0.003290745
-0.01457224
-0.03837026
0.02045051
-0.01563837
-0.001557026
0.03577803
-0.01843389
-0.0204677
0.01574152
-0.01007665
0.03528448
0.01498529
-0.03100215
-0.00115637
-0.07394333
0.005153357
0.02351343
-0.06255951
0.03410142
-0.004367667
0.01986915
0.005353734
-0.01508559
0.006015677
-3.825823e-09
-3.857876e-08
-0.006953294
-4.670507e-08
-0.003475616
-5.224989e-08
-9.013105e-08
0.0007640422
-0.001726088
-5.718595e-08
-1.169109e-07
-0.003971467
-1.056901e-07
-1.515262e-07
0.008237376
0.002887039
-1.116997e-07
-1.711715e-07
-0.001899087
-1.60128e-07
-2.016661e-07
0.0154138
-6.48549e-05
-1.842544e-07
-2.376043e-07
0.10059
-2.189793e-07
-2.609542e-07
0.001550237
-0.003344358
-2.449265e-07
-3.102505e-07
-0.0003186171
-2.810915e-07
-3.235019e-07
0.002168544
-0.01212162
-3.150361e-07
-3.850358e-07
-0.001635242
-3.405539e-07
-3.932574e-07
0.005010229
0.04148165
-3.892164e-07
-4.71989e-07
-0.001261376
-4.056608e-07
-4.665911e-07
-0.04202479
-0.0001805672
-4.781666e-07
-5.683019e-07
0.003903815
-4.846141e-07
-5.519238e-07
0.01329918
-0.01202614
-5.654494e-07
-6.693363e-07
0.001387399
-5.747436e-07
-6.475348e-07
-7.142416e-07
-0.0004052546
-6.787159e-07
-7.81402e-07
-4.532554e-08