/*--------------------------------*- C++ -*----------------------------------*\
  =========                 |
  \\      /  F ield         | OpenFOAM: The Open Source CFD Toolbox
   \\    /   O peration     | Website:  https://openfoam.org
    \\  /    A nd           | Version:  7
     \\/     M anipulation  |
\*---------------------------------------------------------------------------*/
FoamFile
{
    version     2.0;
    format      ascii;
    class       volScalarField;
    location    "0.1";
    object      Uy;
}
// * * * * * * * * * * * * * * * * * * * * * * * * * * * * * * * * * * * * * //

dimensions      [0 1 -1 0 0 0 0];

internalField   nonuniform List<scalar> 
109978
(
0.04116399
0.02364672
0.02034919
0.02194827
0.019768
0.02050083
0.02827894
0.02446542
0.02333144
0.0240016
0.02432361
0.02448141
0.03609768
0.03832741
0.03744953
0.03782479
0.03792867
0.03792755
0.05012099
0.05138404
0.05120286
0.05056918
0.05055055
0.05039747
0.06329863
0.06424366
0.06372637
0.06317898
0.06304006
0.06273653
0.07576868
0.07669342
0.07594368
0.07553267
0.07524199
0.07486715
0.08714737
0.08884201
0.08814579
0.08788639
0.08753738
0.08712164
0.09881034
0.1009927
0.100376
0.1001871
0.09983505
0.09939026
0.1107599
0.1133252
0.1128023
0.1125666
0.1122072
0.1117596
0.1235138
0.1259261
0.12539
0.1251048
0.1247325
0.1242438
0.1366686
0.1388485
0.1381306
0.1377018
0.1373018
0.1367607
0.1497625
0.1519039
0.1509172
0.1504576
0.1500048
0.1494117
0.1628459
0.1650079
0.1638469
0.1633348
0.1628433
0.1622078
0.1761289
0.1781468
0.17695
0.176402
0.1758584
0.175154
0.1896191
0.1915279
0.1902609
0.1896651
0.1890549
0.1882593
0.203291
0.2051389
0.2037943
0.2031214
0.2024259
0.201524
0.2171309
0.2189692
0.2175353
0.2167747
0.2159841
0.2149653
0.2311871
0.2330047
0.2314946
0.2306373
0.2297394
0.228594
0.2454312
0.2472691
0.2456795
0.244725
0.2437114
0.2424287
0.2598632
0.2617413
0.2601007
0.2590551
0.2579195
0.2564862
0.2746108
0.2764802
0.274789
0.2736521
0.2723837
0.2707858
0.2897098
0.2915553
0.2897846
0.2885386
0.287126
0.2853482
0.3141394
0.3071052
0.3051325
0.3037465
0.3021743
0.3001939
0.01250186
-0.0006979918
-0.0006337372
0.0007012922
0.0004836744
0.000678208
-0.04496626
0.001242708
0.0469873
0.01194536
0.02359327
0.01878104
-0.00440627
0.01191673
0.04109603
0.02732879
0.03309229
0.0307742
0.009851515
0.036723
0.04654437
0.04313045
0.04333473
0.04479892
0.01596208
0.05649244
0.05409821
0.05452707
0.05406127
0.05399977
0.02247065
0.07145136
0.06533809
0.06712853
0.06631241
0.06630184
0.02912473
0.08406473
0.07637346
0.07941786
0.07824535
0.07805577
0.03410067
0.09570322
0.08811797
0.09219367
0.09045187
0.09036844
0.04035609
0.1069662
0.1005531
0.1045693
0.1027174
0.1026197
0.0476353
0.1187692
0.1138768
0.1169552
0.1153071
0.1153855
0.05593565
0.1317683
0.1273033
0.1291467
0.1280569
0.1279474
0.06219193
0.1437606
0.1405043
0.1415969
0.1408209
0.1405081
0.07001323
0.1562568
0.1537964
0.1542702
0.1537862
0.1534189
0.08133397
0.1689139
0.1669844
0.167261
0.1668153
0.1665055
0.09012766
0.1819975
0.1802112
0.1802695
0.1798147
0.1795976
0.09771655
0.1951436
0.1935888
0.1936058
0.193105
0.1927943
0.1044694
0.2085058
0.2072
0.2070948
0.20656
0.2060992
0.1120821
0.2221014
0.2209665
0.2208162
0.2202255
0.2195842
0.1195799
0.2358917
0.2350022
0.2348182
0.2341382
0.2333002
0.1265321
0.2497462
0.2492325
0.2490597
0.2482914
0.2472424
0.1339668
0.2637775
0.2636575
0.2634932
0.2627176
0.2614723
0.1424922
0.2782382
0.2783356
0.2781607
0.2773933
0.2759872
0.1510204
0.2931689
0.2933599
0.2931043
0.2923183
0.2907616
0.1691382
0.308486
0.3087645
0.3084271
0.307575
0.3058457
0.006125305
-0.001829409
-0.003854429
-0.001358667
-0.002642041
-0.002268509
-0.1091429
-0.01237119
0.04947502
0.005444216
0.0248434
0.01543828
0.002606958
0.01454771
0.03403007
0.02180047
0.0290497
0.02824838
0.004522985
0.02833705
0.05142555
0.04273271
0.04474969
0.04293541
0.01554771
0.05650024
0.0581142
0.05429211
0.05329563
0.05392205
0.02086781
0.0736482
0.06829044
0.06815319
0.06684587
0.06799898
0.03335481
0.09003239
0.07902904
0.08083536
0.07815718
0.07874567
0.04173976
0.1014061
0.09027717
0.09371082
0.09112452
0.0919769
0.0494036
0.1098957
0.102274
0.105986
0.1032777
0.1038447
0.05311527
0.1217178
0.1149241
0.1181939
0.1156468
0.1161108
0.05685486
0.1333121
0.1285872
0.1305888
0.1283881
0.1281671
0.05851406
0.1457831
0.1419053
0.1427465
0.1409076
0.1406475
0.06604509
0.1587925
0.1550857
0.1549845
0.153363
0.1532989
0.09576939
0.1704301
0.168896
0.1677263
0.1661702
0.1661378
0.1002194
0.1833201
0.1814171
0.1804773
0.1794329
0.1792687
0.1052757
0.1977477
0.1950046
0.1935986
0.1928233
0.1925804
0.1101177
0.211608
0.2086814
0.207136
0.2063492
0.205949
0.1194167
0.22563
0.222735
0.2208088
0.2200535
0.2195031
0.1276964
0.2396593
0.2369057
0.2347225
0.2340125
0.2332837
0.1323623
0.2540317
0.2511859
0.2488315
0.2482211
0.2472626
0.1380554
0.2684291
0.2658931
0.2632413
0.262767
0.2614904
0.1505146
0.2824554
0.2808988
0.2780075
0.277706
0.276137
0.1596401
0.2968945
0.2959415
0.2930409
0.2927977
0.291077
0.1678645
0.3117805
0.311272
0.3084079
0.3081342
0.3063061
0.00502205
-0.00652134
-0.007224721
-0.003581766
-0.002463406
-0.002200305
-0.1043385
-0.02016073
0.03823386
0.001687077
0.02033695
0.01529946
-0.005283865
0.01578816
0.029534
0.01827951
0.02763111
0.02867018
-0.05300758
0.03807934
0.04627635
0.04645173
0.04262213
0.04442348
0.01118201
0.0537319
0.05649738
0.05710768
0.05483943
0.05419153
0.03777828
0.06928752
0.06857835
0.07092503
0.06752839
0.06853132
0.05796178
0.08451171
0.07981065
0.08211906
0.07885402
0.07884439
0.07456028
0.09757658
0.09065174
0.09345041
0.09077656
0.09135107
0.06525174
0.1094437
0.1010033
0.1046251
0.1026301
0.103728
0.06144978
0.1204217
0.1134201
0.1167678
0.1154643
0.1168266
0.06124416
0.1336878
0.1267095
0.1300557
0.1281968
0.1287028
0.07234119
0.148484
0.1407294
0.1428414
0.1407328
0.1406584
0.07722098
0.1602884
0.1554616
0.1554808
0.1536401
0.1535795
0.08611625
0.172309
0.1683284
0.1683023
0.1664912
0.1665896
0.09221035
0.1860172
0.1814831
0.1807728
0.17935
0.1791268
0.09813337
0.198794
0.1955044
0.1932732
0.1923056
0.1925046
0.1057875
0.2128575
0.2093842
0.2065095
0.2056466
0.2060748
0.1147287
0.2266958
0.2233915
0.2198652
0.2190953
0.2195774
0.1233589
0.2407532
0.2371282
0.2338947
0.2330569
0.2332877
0.1302418
0.254181
0.2510025
0.2482437
0.2472098
0.2469542
0.1348528
0.2685982
0.2654069
0.2628642
0.2617373
0.2611609
0.1450519
0.2835266
0.2803596
0.27777
0.2765209
0.2757609
0.1541024
0.2982463
0.2955609
0.2926769
0.2914592
0.2905862
0.1621109
0.3131303
0.3110943
0.3078745
0.3067024
0.3057236
0.005251485
-0.009884285
-0.007628728
-0.004788325
-0.002431229
-0.002241891
-0.09653663
-0.01666494
0.03479701
0.002316178
0.01440937
0.01496751
0.006813954
0.00950701
0.02060181
0.0200986
0.02549179
0.02810925
-0.02430362
0.03962642
0.04714704
0.04471831
0.04347548
0.04424181
0.01855316
0.05414592
0.05749159
0.05773516
0.05630999
0.05439671
0.02665494
0.0691068
0.07002864
0.07151082
0.06781512
0.0686371
0.03737698
0.08678098
0.08133367
0.08175646
0.07899284
0.07912481
0.04286502
0.09966018
0.09208451
0.09348282
0.08994958
0.09113374
0.0488295
0.1098813
0.1027074
0.1055092
0.1022888
0.1034911
0.05357727
0.1205479
0.1143316
0.1177841
0.1151709
0.115911
0.0588449
0.1321217
0.1275184
0.1307701
0.1284306
0.1285977
0.07994805
0.1447032
0.1408744
0.1428605
0.1406925
0.1405637
0.09176938
0.1586103
0.1541914
0.154099
0.1529331
0.1525986
0.08664511
0.170276
0.1688561
0.1669225
0.166148
0.1653466
0.08808185
0.1833864
0.1817377
0.1804652
0.1792222
0.1791778
0.09580511
0.1978306
0.1952362
0.1930881
0.1927239
0.1922085
0.1031901
0.2114003
0.2081354
0.2066834
0.2058464
0.2057392
0.1117202
0.2256308
0.2223562
0.2199615
0.2196
0.2190915
0.1179183
0.238873
0.2363694
0.2344616
0.2335302
0.2330192
0.1238506
0.2527964
0.2504396
0.2486918
0.2476403
0.246979
0.1313887
0.2667743
0.2646391
0.2631142
0.2622756
0.2611958
0.1434213
0.2808427
0.2794957
0.2779378
0.277329
0.2757932
0.153556
0.2952606
0.2942425
0.2929533
0.2922688
0.290723
0.1609557
0.3100802
0.3094894
0.3080127
0.3075573
0.3058501
-0.000740445
-0.007560103
-0.006147917
-0.001223412
-0.002673144
-0.001499114
-0.1103625
-0.01751708
0.03546487
0.001882753
0.01492236
0.0146496
-0.0007977205
0.009290478
0.02088812
0.02020556
0.02552348
0.02813447
-0.08862963
0.04025638
0.0473463
0.04482052
0.04365873
0.04423189
-0.01151359
0.05425358
0.05745886
0.05774518
0.05632716
0.05439538
0.02393478
0.06961617
0.07004599
0.07154674
0.06782645
0.06867752
0.03338958
0.08703494
0.08146294
0.08176517
0.07899495
0.07914413
0.05227826
0.09958514
0.09209773
0.09346426
0.08993659
0.09111983
0.07171861
0.1098247
0.1026664
0.1054508
0.1022832
0.1034695
0.08290375
0.1206699
0.1142161
0.1177321
0.1151644
0.1159191
0.08033913
0.1323027
0.1274136
0.1307609
0.1284416
0.1285946
0.07262026
0.1448122
0.140879
0.1428667
0.1406999
0.1405765
0.07551446
0.1584399
0.1541534
0.154113
0.1529382
0.1526072
0.08300356
0.1699723
0.1687049
0.1668716
0.1661332
0.165368
0.09289768
0.1833263
0.181581
0.1804174
0.1792267
0.1791589
0.1002904
0.1976655
0.1952309
0.1930878
0.192751
0.1922442
0.1075644
0.2112958
0.2079957
0.2067035
0.2058486
0.2057357
0.1150759
0.225426
0.2223415
0.2199101
0.2196111
0.2191855
0.1245883
0.2389122
0.2363315
0.2344961
0.2335387
0.2330636
0.1336527
0.2527436
0.2500606
0.2486162
0.2475851
0.2470471
0.1410685
0.2674907
0.2648483
0.2630177
0.2623071
0.261224
0.1481032
0.2807713
0.2797509
0.277992
0.2773306
0.2759364
0.1541567
0.2951809
0.2944025
0.2929028
0.2922221
0.290841
0.1616828
0.3099567
0.3095541
0.3079948
0.3075858
0.3059588
0.00581745
-0.006839544
-0.006131499
-0.0008731388
-0.002925148
-0.0007782428
-0.1133609
-0.02083131
0.03753076
0.002082889
0.01936173
0.01542158
-0.01102402
0.01523969
0.02939668
0.01826593
0.0275686
0.02851628
0.02843624
0.03742596
0.04619718
0.04654534
0.04255092
0.04439341
0.01389204
0.05351113
0.05663321
0.05714066
0.05482959
0.0541695
0.01503754
0.06907116
0.06868257
0.07093927
0.06755372
0.06851991
-0.007171322
0.08437654
0.07985416
0.08213267
0.07885176
0.07884612
0.03251183
0.09744096
0.09064996
0.09342859
0.09076809
0.0913412
0.0666103
0.1093185
0.1010804
0.1046322
0.1026309
0.1037301
0.08209046
0.1202734
0.1135405
0.1167757
0.1154587
0.1168111
0.07291404
0.1334325
0.1268397
0.1300308
0.1281988
0.1286851
0.05512289
0.1481565
0.1406922
0.1428226
0.1407289
0.1406427
0.06853387
0.1600121
0.1553386
0.1554527
0.1536295
0.1535373
0.08205239
0.1721675
0.168167
0.1682495
0.166478
0.1665402
0.09363802
0.1859168
0.1813386
0.1807179
0.1793407
0.1790634
0.1014179
0.1987674
0.1954121
0.193256
0.1923039
0.1924357
0.1086846
0.2127634
0.2092935
0.2064966
0.2056585
0.206017
0.1159154
0.2266875
0.2233851
0.2198521
0.2191071
0.2195334
0.1252309
0.2402989
0.2370889
0.2339048
0.2330764
0.2332238
0.1395596
0.2540807
0.2510808
0.248211
0.2472926
0.2469472
0.1457419
0.2689862
0.2655419
0.2628985
0.2617992
0.2611379
0.1460868
0.2836318
0.280376
0.2777454
0.2765303
0.2756993
0.1528691
0.298305
0.2955495
0.2926238
0.2914391
0.2904056
0.1613545
0.3131394
0.311056
0.3078579
0.3066493
0.305609
0.006358808
-0.004566049
-0.005229514
-0.001980134
-0.002939292
-0.001316161
-0.1365434
-0.01253523
0.0493179
0.005578114
0.02497829
0.01543852
-0.02950451
0.01438542
0.03352069
0.02158395
0.02896451
0.02828911
0.05080595
0.02841179
0.05138344
0.04275019
0.04474232
0.04293424
0.02994196
0.05656805
0.05798717
0.05427829
0.05326384
0.05390792
0.02430649
0.07379375
0.06819296
0.06816353
0.06684184
0.06799546
0.0126948
0.09011493
0.07906877
0.08084794
0.0781556
0.07873892
0.01083808
0.1013436
0.09034675
0.09371601
0.09112063
0.09197377
0.0544685
0.1099086
0.1022811
0.1059831
0.1032758
0.1038452
0.0726199
0.121752
0.1149337
0.1181927
0.1156472
0.1161099
0.07470137
0.1332988
0.1285922
0.1305795
0.1283913
0.128164
0.07427604
0.1457802
0.1419131
0.1427347
0.1409124
0.1406355
0.08053529
0.1587609
0.1550622
0.1549647
0.15336
0.153286
0.08090096
0.1703686
0.1688199
0.1676834
0.1661506
0.1661258
0.09313859
0.1833235
0.1813672
0.1804396
0.1794101
0.1792506
0.1021355
0.1976995
0.1949385
0.193568
0.1928059
0.192568
0.1096794
0.2115969
0.2085774
0.2070962
0.2063194
0.2059341
0.1166061
0.2256291
0.2226474
0.2207652
0.2200443
0.2195009
0.1246316
0.2397103
0.2367826
0.2346947
0.2339982
0.233293
0.1324621
0.2543346
0.2512103
0.2488126
0.2482172
0.2472857
0.1444672
0.2684566
0.2660136
0.2632351
0.2628282
0.2615809
0.1483689
0.2824936
0.2809659
0.2780141
0.2777123
0.2762225
0.1547824
0.2969196
0.2960003
0.2930157
0.2929328
0.2913101
0.1626802
0.3118244
0.3112679
0.308442
0.3080915
0.3063917
0.006221444
-0.005488296
-0.004709872
-0.002356161
-0.002155823
-0.001746304
-0.1102696
0.0007178147
0.04842149
0.01201404
0.02370742
0.01879455
-0.03638577
0.01170399
0.04094972
0.02735556
0.03306102
0.03076669
0.009880501
0.03661457
0.046606
0.04314575
0.04333738
0.04478274
0.02142912
0.05643151
0.05409081
0.05452652
0.05405745
0.05397572
0.03038346
0.07142854
0.06532494
0.0671298
0.0663104
0.06628543
0.03493944
0.08403913
0.07636853
0.07942028
0.0782433
0.0780444
0.0380721
0.09569143
0.08811191
0.09218616
0.09044769
0.09035972
0.05228853
0.1069613
0.1005512
0.104562
0.1027134
0.1026179
0.0752283
0.1187688
0.1138723
0.1169487
0.1153037
0.1153806
0.06719903
0.1317703
0.1273
0.1291359
0.128056
0.1279435
0.07134724
0.1437581
0.1405022
0.1415806
0.140817
0.1405059
0.07971724
0.1562276
0.153778
0.154243
0.1537716
0.1534123
0.08628189
0.1688972
0.1669603
0.1672275
0.166792
0.1664904
0.09467327
0.1819811
0.1801906
0.1802359
0.1797946
0.1795778
0.1029887
0.1951327
0.1935719
0.1935791
0.1930835
0.1927752
0.1105524
0.2085024
0.2071878
0.2070678
0.2065321
0.2060733
0.117826
0.2221017
0.2209723
0.2207929
0.2202002
0.2195651
0.1255309
0.2358775
0.235018
0.2347905
0.2340958
0.2332706
0.134064
0.2496957
0.2492293
0.2490316
0.2482458
0.2472284
0.1412492
0.2637981
0.2636515
0.2634217
0.2626218
0.2614203
0.1491834
0.2782622
0.2783422
0.2780828
0.277253
0.2759749
0.1575061
0.2932053
0.2933437
0.2928746
0.2919886
0.2905376
0.1691849
0.3085632
0.3087669
0.3082266
0.307047
0.3057575
0.01462621
-0.002555143
0.002207978
-0.0002504285
-0.000159974
0.001185156
0.03437863
0.008272254
0.02663102
0.02008464
0.02282449
0.02155274
0.02153973
-0.08389622
0.02902729
0.02929986
0.0282073
0.0293447
0.02921693
0.02959162
0.02391643
0.04012324
0.03914138
0.03751177
0.03997101
0.03997961
0.04089589
0.02997149
0.05302304
0.05200715
0.04979246
0.05126912
0.05102836
0.05101082
0.03035908
0.06417796
0.06543331
0.06446267
0.0642804
0.06413136
0.06362395
0.02914771
0.07554336
0.0781455
0.07781833
0.07679339
0.07621055
0.07545975
0.02465645
0.08643412
0.08916528
0.0905926
0.08935413
0.08868445
0.08794726
0.006444366
0.1007382
0.1010405
0.1024799
0.1017417
0.1008728
0.1000781
0.007599869
0.1131028
0.1133363
0.1142764
0.1138716
0.1132005
0.1125138
0.009237465
0.1251832
0.1261683
0.1265753
0.1263313
0.1255809
0.1249385
0.01057452
0.1384079
0.1395962
0.1391768
0.138963
0.1381607
0.1375142
0.0122787
0.1519064
0.152555
0.1519936
0.1516539
0.1508036
0.1501753
0.01407464
0.1648493
0.1653744
0.1646627
0.1644683
0.1636516
0.1630262
0.01524453
0.1777986
0.1783993
0.1776714
0.17748
0.1766999
0.1760352
0.01647303
0.1912871
0.1916507
0.1909325
0.1908061
0.189966
0.1892043
0.01808532
0.205077
0.2053056
0.2045176
0.2043302
0.2033892
0.2025215
0.01971958
0.219035
0.2191872
0.2183091
0.2180772
0.2170005
0.2160168
0.02119407
0.2331536
0.2333327
0.2323366
0.2320298
0.2308139
0.2297037
0.02240753
0.2475059
0.2476846
0.2465372
0.2461915
0.244838
0.243598
0.02378821
0.2619303
0.2622013
0.2610161
0.2605875
0.2591087
0.257722
0.02514356
0.2766303
0.2769741
0.2757596
0.2752605
0.2736589
0.2720968
0.02651642
0.291732
0.29213
0.2908743
0.2902587
0.2885813
0.2867948
0.02796223
0.3132673
0.3077738
0.3063538
0.3055938
0.303912
0.3018765
-0.004355805
-0.03647097
-0.001224545
0.005187806
0.004905318
0.02070354
0.03412928
0.02213928
0.06715579
0.01815529
0.02812471
0.02473319
-0.08379427
0.03695298
-0.000718361
0.03794075
0.05389234
0.03754777
0.02401729
0.04070862
-0.0003952858
0.04413161
0.06967703
0.05092342
0.03002907
0.04975209
0.00166994
0.05377488
0.08292188
0.06471303
0.03039628
0.05932547
0.003883428
0.06541133
0.09583154
0.07843951
0.02915617
0.06940141
0.004917595
0.07672872
0.1069723
0.09065345
0.02464826
0.07962516
0.01103332
0.08912477
0.1190373
0.1028469
0.006447463
0.09409987
0.0133297
0.102787
0.1308277
0.1155421
0.007591931
0.1076799
0.01550686
0.1157011
0.1428648
0.1294897
0.009235781
0.1207225
0.01702901
0.1280929
0.1562187
0.1440038
0.01057502
0.1340388
0.01932412
0.1408152
0.1695786
0.1579564
0.0122949
0.1466058
0.02147096
0.1534916
0.182518
0.1720251
0.01414007
0.158743
0.02277227
0.1661669
0.195717
0.1861073
0.0152925
0.1712955
0.02411043
0.1790029
0.2094086
0.2003581
0.01651611
0.1842668
0.02549676
0.1919728
0.2232453
0.2146879
0.01810673
0.197381
0.02694696
0.2051564
0.2371181
0.2291626
0.01973745
0.2106374
0.02824483
0.2184981
0.2512358
0.243777
0.02120049
0.2239649
0.02942823
0.2318909
0.2655125
0.2585571
0.02241425
0.2374615
0.03071053
0.2453677
0.2799789
0.273555
0.02368698
0.2511275
0.03202677
0.2592083
0.2946911
0.288822
0.02509094
0.2650605
0.03336202
0.2734124
0.3096254
0.3044312
0.02648475
0.2793856
0.03470747
0.2879685
0.3248423
0.2974875
0.02793222
0.2942282
0.03619549
0.3028767
-0.02441033
-0.0001007402
0.0303113
-0.01549583
-0.01950662
-0.001819849
-0.01242723
-0.002649683
0.0315883
-0.01061453
-0.03276787
0.03955236
-0.02101907
-0.0006922986
0.03359315
-0.01247545
-0.03171269
0.04678665
-0.02201332
-0.0005687809
0.03379164
-0.01259801
-0.0005636764
0.04645244
-0.02193748
-0.02954831
0.01725033
-0.01558149
-0.0005136949
0.05181021
-0.0173026
-0.03227836
0.03824788
-0.01746215
-0.0006950168
0.03520394
-0.01319771
-0.0306571
0.0439449
-0.01524141
-0.002471419
0.02828751
-0.01376578
-0.02016388
0.0008431419
-0.02424282
-0.0002924277
0.03086379
-0.03608976
-0.001152595
0.004400626
-0.004228058
-0.003396144
0.009486493
-0.01378757
0.01250618
-0.02972742
-0.002882529
0.02557116
0.007430085
0.0131526
-0.008446666
-0.001937787
0.01903839
-0.0009085232
0.0145576
-0.01647487
-0.001868012
0.02001432
0.004037407
0.01552037
-0.01287557
-0.0001979236
0.01900086
0.002297333
0.01464548
-0.01511062
0.01944198
0.01479982
0.02211822
0.06700547
0.0180062
0.004976774
0.02021468
0.03680122
-0.0007231053
0.03783355
0.02804153
0.02467761
0.04057351
-0.0004053278
0.04405924
0.0538116
0.03748024
0.04967634
0.001660424
0.05372539
0.06958743
0.05088243
0.05927179
0.003882551
0.06537658
0.08288172
0.0646822
0.0693656
0.00491869
0.07670538
0.09579868
0.07841004
0.09409077
0.01331348
0.1027944
0.1190382
0.1028564
0.107656
0.01550569
0.1157017
0.1308238
0.1155412
0.1207223
0.01701827
0.1280937
0.1428751
0.1294844
0.134032
0.01928241
0.1407956
0.1562198
0.1439877
0.1465993
0.02139158
0.1534445
0.1695619
0.1579338
0.1587008
0.0227163
0.1661083
0.182487
0.1719923
0.1712507
0.02406719
0.1789523
0.1956711
0.1860785
0.1842268
0.02547406
0.1919283
0.2093706
0.2003366
0.1973501
0.02693628
0.2051278
0.2232137
0.2146771
0.2106183
0.02824976
0.2184865
0.2371038
0.2291611
0.2239583
0.02944113
0.2318832
0.2512287
0.2437779
0.2374688
0.03081342
0.245377
0.2655119
0.2585692
0.251146
0.03206925
0.2592297
0.2799932
0.2735867
0.2650926
0.03338819
0.2734524
0.2947252
0.288867
0.2794335
0.0347275
0.2880203
0.3096699
0.3044987
0.294287
0.03620669
0.3029453
0.3249065
0.2975532
0.01100538
-0.004152405
0.01304148
-0.02961218
0.01418806
-0.003357559
0.009602559
-0.01392169
0.01329332
-0.008453864
-0.00258879
-0.002279076
0.02516703
0.007279512
0.01460602
-0.01640743
0.002456857
-0.001967919
0.01894844
-0.0009063849
0.01556062
-0.01287283
-0.000213648
-0.001871014
0.02001335
0.004043305
0.01464011
-0.01509775
-0.0001706156
-0.0002102917
0.01901261
0.002267911
0.01479861
0.001183479
0.01945066
0.01658747
0.01867977
-0.002385002
0.01129648
0.01131716
0.02080996
0.03070712
0.009205681
0.02330339
0.03390549
0.01572449
0.0180123
0.02926508
0.04635937
0.02403524
0.02686733
0.03624323
0.05538089
0.02878585
0.03788886
0.04122148
0.06340761
0.03539066
0.04936758
0.04805667
0.07429395
0.04417467
0.06444827
0.05697006
0.08915296
0.05561642
0.07799829
0.06685026
0.1023044
0.06831002
0.0915065
0.07719363
0.1154376
0.0778712
0.105136
0.08589897
0.1276689
0.08601317
0.1172873
0.09457866
0.1393515
0.09440463
0.1291749
0.1032142
0.1508742
0.1030844
0.1409033
0.1112163
0.1624108
0.1115592
0.1527155
0.1193983
0.1742509
0.1200835
0.1646653
0.1273418
0.1856212
0.1286816
0.176109
0.1354186
0.1971234
0.1372093
0.1878493
0.1435848
0.2087597
0.1456178
0.1996871
0.151691
0.2204472
0.1539923
0.2116847
0.159848
0.2324453
0.1624739
0.2238847
0.1683285
0.2447818
0.1710147
0.2364021
0.1770435
0.257376
0.179976
0.2491314
0.1859484
0.270246
0.1892431
0.2622936
-0.000758162
-0.011293
-0.03017773
-0.0005962903
-0.026463
0.02311865
-0.01613536
0.01987162
-0.0010408
-0.01192229
0.0222745
-0.02165165
0.01482164
-0.02869592
-0.009239187
-0.02372281
-0.0009107623
0.01429926
0.07961389
0.01103251
0.08909652
0.1069775
0.09066137
-0.0256185
-0.02414242
-0.0209406
0.0092099
0.01821812
0.0001664902
-0.001581431
-0.008704975
0.0004964527
0.0165315
0.003098062
0.005177024
-0.007898428
0.01714629
0.01197764
0.01555073
0.02050085
0.02641072
0.02005219
0.02869121
0.02885811
0.03896428
0.0244338
0.0379985
0.03531391
0.04588884
0.03063754
0.04818589
0.04215778
0.05712517
0.03959812
0.06164878
0.04631669
0.06414418
0.04790472
0.075188
0.05425253
0.07965483
0.05672722
0.08915317
0.0638217
0.09203264
0.06611918
0.1035906
0.07647127
0.1033912
0.07826851
0.1163299
0.08467966
0.1153784
0.08697939
0.1283567
0.09378
0.1267688
0.09550093
0.1400194
0.1027612
0.1381217
0.1039263
0.1517145
0.1109704
0.1491335
0.1122813
0.1637641
0.119156
0.1600914
0.1210085
0.1757649
0.1276112
0.1711508
0.1296639
0.1876367
0.135881
0.1821502
0.1382176
0.1995149
0.144151
0.1936729
0.1466308
0.2114006
0.1523449
0.2053009
0.155009
0.2233662
0.1605713
0.2169652
0.1634213
0.235545
0.1689934
0.2288619
0.171926
0.247992
0.177532
0.2413002
0.1804808
0.2607716
0.1861017
0.2541013
0.1891662
0.2738922
0.01587097
0.2672843
0.1948564
-0.009777161
-0.01829587
0.01252399
-0.03266063
0.02087374
-0.01650438
-0.009580507
0.0141129
-0.02165195
0.02049446
-0.03265084
0.02272516
-0.03455212
0.002812882
-0.002206574
-0.0113254
0.01409759
0.001365616
-0.02226213
-0.02408125
-0.01959215
0.009386111
0.01818593
0.001898462
-0.001400304
-0.00905427
0.01144346
-0.01672921
0.02217699
0.0006977504
0.01776003
-0.01233709
-0.009586767
-0.002825045
0.007210063
-0.005890721
0.01868526
-0.003584723
0.01857766
-0.009100084
-0.001543107
-0.003165896
0.005085981
-0.004797736
0.01989347
-0.007203666
0.01653865
-0.01010271
-0.005810847
-0.006795672
0.005894275
-0.004519189
0.0189878
-0.006867897
0.01758231
-0.01032639
-0.003743665
-0.005312894
0.004588452
-0.004117298
0.01927513
-0.007601702
0.004496808
-0.00396234
0.01962739
0.01665888
0.01957463
-0.002606237
0.01151145
0.003171466
0.005134499
-0.00797164
0.01746502
0.01128385
0.02066748
0.03065707
0.009126675
0.01192137
0.015479
0.02045271
0.02629117
0.02326285
0.03380904
0.01564487
0.01794166
0.01998485
0.0286229
0.02880435
0.03887121
0.02923349
0.04626249
0.02395546
0.02682307
0.02438152
0.03795438
0.03528137
0.04581538
0.03621764
0.05531228
0.0287326
0.03785332
0.03059711
0.04814928
0.04214241
0.05706799
0.04121714
0.0633665
0.03535409
0.04933214
0.03959121
0.06163593
0.0463162
0.06409781
0.05690281
0.0891772
0.05553486
0.07800607
0.05670272
0.08914413
0.06381417
0.09201321
0.06683429
0.1023007
0.06827112
0.09149024
0.06609347
0.1035875
0.07645742
0.1033857
0.07718116
0.1154437
0.07786516
0.1051278
0.0782582
0.1163315
0.08465764
0.1153678
0.08589582
0.127668
0.0860108
0.1172764
0.08697733
0.1283508
0.09375447
0.1267607
0.09456712
0.1393331
0.09440008
0.1291686
0.09549337
0.1400014
0.1027112
0.1380984
0.1031609
0.1508213
0.1030746
0.1408853
0.1039155
0.1516757
0.1109047
0.1490932
0.1111571
0.1623554
0.1115499
0.1526999
0.1122734
0.1637174
0.1191006
0.1600403
0.1193427
0.1742063
0.1200775
0.1646367
0.121002
0.1757253
0.1275642
0.1710922
0.1296631
0.187614
0.1358557
0.1821007
0.1353886
0.1970993
0.1372127
0.1878257
0.1382177
0.1994995
0.1441277
0.193653
0.1435659
0.2087395
0.1456259
0.19967
0.1466449
0.2113868
0.1523327
0.2052876
0.1516675
0.2204399
0.1540119
0.211667
0.1550182
0.223367
0.160575
0.2169553
0.1598729
0.2324573
0.1624966
0.2239181
0.1634429
0.2355759
0.1690271
0.2288894
0.1683554
0.2448157
0.1710505
0.2364452
0.1719481
0.2480207
0.1775523
0.2413374
0.1770702
0.2574175
0.1800017
0.2491826
0.1805101
0.2608251
0.1861407
0.254155
0.18598
0.2703065
0.1892921
0.2623626
0.1891993
0.264773
0.2673545
0.1948974
0.002084605
0.01861257
-0.01695061
0.02187845
0.01125625
0.0007683303
0.007203423
-0.005842426
0.01866791
-0.003544251
0.005102663
-0.004696262
0.01991425
-0.007133766
0.005923539
-0.004456781
0.01904749
-0.006861233
0.004598028
-0.004109507
0.01925842
-0.007604211
0.004498575
-0.00393431
0.01961577
-0.007947621
-0.0008210474
-0.02989939
-0.002829324
-0.0003595809
0.0008613818
0.000359231
-0.0005180166
0.0007937852
0.0006838771
0.005730757
-0.0006876989
0.002026955
0.0008072232
0.004230998
9.890111e-05
0.002834612
0.0002683947
0.002352687
0.0009275373
0.002755942
0.0004626726
0.001790309
0.0008799293
0.002835053
0.000952503
0.002566235
0.002022156
0.003175544
0.001933853
0.003002253
0.002371166
0.003511472
0.002510512
0.004263281
0.003835341
0.004066602
0.003241127
0.004809142
0.004888528
0.004515626
0.003997127
0.005679247
0.005587878
0.005031038
0.00459072
0.006510289
0.006345562
0.00562987
0.004992604
0.007228851
0.007028718
0.006242519
0.005312644
0.007905259
0.007635753
0.006878104
0.005819063
0.008552576
0.008136597
0.007517077
0.006231038
0.009040927
0.008566427
0.008069115
0.0067053
0.009604228
0.009031262
0.008590201
0.007197719
0.01011993
0.009472523
0.009106236
0.007665147
0.01063205
0.009889178
0.009616076
0.008109476
0.01112209
0.01030388
0.01014194
0.008638991
0.01168945
0.0108136
0.01068455
0.009185432
0.01229032
0.01136635
0.01125458
0.009719865
0.01293194
0.01195145
0.01184542
0.001511408
0.00312144
-0.01336911
0.001563547
-0.001829756
-0.003820758
0.00141627
-0.006917284
0.0001846901
8.418335e-07
9.696111e-05
-0.0001813004
0.0001202485
4.61605e-05
-0.0007392281
-0.01482387
-0.001225302
0.0005374608
0.005926885
-0.0001933905
0.002561675
0.005032873
0.0001612512
-0.007076389
0.0006973519
-0.01556491
0.0004454687
0.003192614
-0.0007777849
0.0007496036
-0.0001966521
0.000769554
-0.0001149204
0.001761331
-0.001363824
0.008387672
0.0002043188
0.0028239
0.0004551572
0.007399936
0.0004062402
0.002872278
0.001226065
0.004494482
0.0008533204
0.002773736
0.002165909
0.00255667
0.001313569
0.003086444
0.002451253
0.002479261
0.002172144
0.003492133
0.003088666
0.003450771
0.002983324
0.004032554
0.00413812
0.004039831
0.002581893
0.004480659
0.005406341
0.003599307
0.003347865
0.004941289
0.006676016
0.003757164
0.003859516
0.005524236
0.007480242
0.004389944
0.004302676
0.006129713
0.008076033
0.004919132
0.004795692
0.006754681
0.008660226
0.005446553
0.005349673
0.00737808
0.009195044
0.006044565
0.00572518
0.007946662
0.00963025
0.006523284
0.00613011
0.008491033
0.01012662
0.007080631
0.006518436
0.009054811
0.01058466
0.007632746
0.006924291
0.009626743
0.01100509
0.008168795
0.007338379
0.01020005
0.01144049
0.008678283
0.007808234
0.01076002
0.01192496
0.009247292
0.008320818
0.01131457
0.01244589
0.009876013
0.008832886
0.01186977
0.01297893
0.01051395
0.00935607
0.0124322
0.01113398
0.01355208
0.003491914
-0.001442948
0.00292981
-0.006496333
-0.0008313931
-0.005501307
-0.00163165
-0.002262927
-0.0009483501
-0.0008867141
-0.002522125
0.000351076
-0.01893861
-0.001852828
0.004888832
-0.001202417
0.002642908
0.002239127
0.005071895
0.000504043
0.00106089
-0.0007532288
0.002877303
-0.001086896
-0.002019616
0.002253781
0.004918775
0.0007304732
0.002070657
0.001049328
0.01709776
-0.01168687
-0.004288872
-0.005662055
0.004742375
0.0007333969
0.001980532
0.0006917948
-0.0005378012
-0.03606762
-0.0004249289
-0.00202435
-0.0007577053
0.0007475121
-0.0002081727
0.0006096929
0.1273058
0.1855796
0.1286765
0.1760937
0.007812269
0.01076325
0.01193834
0.009258022
0.008652122
0.01170211
0.01068676
0.01082581
0.008836798
0.01187298
0.01299032
0.01052312
0.009729529
0.01293956
0.0118478
0.01196055
0.009360455
0.01243462
0.01114394
0.01355952
-0.0008495329
0.03554524
-0.02067735
0.03456026
0.04204354
-0.009167802
0.002922021
-0.01560634
-0.005733847
8.650609e-06
0.01769857
-0.01223814
-0.00962284
-0.002801016
0.0185314
-0.009013796
-0.001566265
-0.003134593
0.01653929
-0.01002992
-0.005818504
-0.006728267
0.01759634
-0.01032623
-0.003743919
-0.005312631
0.01709892
-0.01166409
-0.004296735
-0.005655095
-0.002205234
0.0001789313
0.002837452
-0.01003892
-0.0007206182
0.001085013
-0.00271503
0.004191174
0.0002240956
0.002344969
-0.0006968342
0.008542334
0.0001128058
0.002903933
-0.0001153148
0.005329977
0.0003220507
0.002729204
0.0008480462
0.002499308
0.0009488477
0.002869601
0.001513029
0.002350288
0.001164742
0.003366869
0.00193291
0.002538703
0.002133145
0.003747158
0.002681523
0.003032497
0.002635711
0.004335656
0.003304092
0.003598377
0.003476714
0.004651594
0.00416997
0.003804264
0.004024784
0.005183415
0.004956072
0.004359887
0.004543153
0.005784332
0.005750548
0.004997597
0.004960609
0.006391899
0.006571948
0.005498814
0.005398933
0.007034112
0.007377502
0.006021296
0.005841117
0.007662797
0.007800829
0.006616013
0.006265505
0.008222324
0.008217568
0.007080574
0.006695144
0.008783807
0.008667898
0.007654803
0.007137864
0.009336596
0.009090817
0.008239198
0.007578772
0.009890287
0.009514522
0.008807278
0.008026108
0.01045083
0.009955098
0.009400417
0.008517887
0.01100796
0.0104223
0.0100042
0.009029637
0.01156682
0.01090221
0.01058889
0.009556294
0.01212655
0.01141854
0.0112035
-0.002248179
-0.003494196
0.002025362
-0.001935794
-0.000334107
-0.0009652011
0.0001064244
-0.001194198
0.0009524031
-1.09316e-05
-0.000306767
0.001531251