/*--------------------------------*- C++ -*----------------------------------*\
  =========                 |
  \\      /  F ield         | OpenFOAM: The Open Source CFD Toolbox
   \\    /   O peration     | Website:  https://openfoam.org
    \\  /    A nd           | Version:  7
     \\/     M anipulation  |
\*---------------------------------------------------------------------------*/
FoamFile
{
    version     2.0;
    format      ascii;
    class       volScalarField;
    location    "0.1";
    object      Uy;
}
// * * * * * * * * * * * * * * * * * * * * * * * * * * * * * * * * * * * * * //

dimensions      [0 1 -1 0 0 0 0];

internalField   nonuniform List<scalar> 
89125
(
-1.013273
-0.9843413
-0.9846219
-0.9858049
-0.9834009
-1.005498
-0.994226
-0.9875487
-1.00077
-1.025449
-1.025389
-1.021846
-1.021864
-1.017267
-1.018809
-1.015661
-1.015883
-1.053878
-0.9799145
-0.9850875
-0.9845851
-0.9860706
-0.9800046
-0.9809101
-0.9837606
-0.9816331
-0.9778227
-1.06716
-0.9956418
-1.000702
-0.9996394
-1.002538
-1.001637
-0.999111
-1.003759
-1.000371
-1.000164
-1.074281
-0.9851066
-0.9943717
-0.9928269
-0.9897579
-0.9881586
-0.9928706
-0.9873406
-0.9931538
-0.9856798
-1.077777
-0.992095
-0.9993753
-1.003788
-1.002212
-1.003751
-1.007092
-1.002506
-1.008165
-1.005814
-1.079882
-0.9941344
-0.9981896
-1.000311
-0.9950431
-0.9942929
-1.0017
-0.986704
-1.003452
-0.9943943
-1.0752
-0.9889658
-1.002607
-1.014196
-1.010906
-1.017827
-1.025667
-1.010268
-1.026855
-1.02841
-1.072058
-1.028109
-1.038313
-1.045371
-1.050448
-1.044198
-1.061796
-1.012867
-1.038284
-1.049101
-1.028012
-1.010487
-1.036904
-1.055061
-1.063185
-1.055064
-1.089155
-1.017378
-1.079018
-1.079067
-0.9732655
-1.115172
-1.092036
-1.10414
-1.147439
-1.150042
-1.164404
-1.156727
-1.153791
-1.194464
-0.9821297
-0.9812902
-0.9628207
-0.9933054
-0.9820504
-0.9970677
-0.984618
-0.9977297
-0.9904668
3.193954e-08
2.320113e-08
1.124288e-08
1.310462e-08
5.920919e-09
-1.745471e-09
-4.998334e-09
-1.498804e-08
-2.140459e-08
1.068385e-07
1.172544e-07
1.153446e-07
1.212128e-07
1.280651e-07
1.398585e-07
1.54333e-07
1.745507e-07
1.979933e-07
1.48797e-07
1.597828e-07
1.658149e-07
1.768244e-07
1.885217e-07
2.033349e-07
2.223573e-07
2.454066e-07
2.727704e-07
2.032902e-07
2.138801e-07
2.211325e-07
2.326387e-07
2.496369e-07
2.695671e-07
2.94772e-07
3.250559e-07
3.613731e-07
2.501421e-07
2.54734e-07
2.684543e-07
2.831834e-07
3.036039e-07
3.276934e-07
3.571826e-07
3.927543e-07
4.351377e-07
2.976648e-07
2.995292e-07
3.151951e-07
3.309286e-07
3.548407e-07
3.821841e-07
4.164452e-07
4.569594e-07
5.054303e-07
3.331706e-07
3.372514e-07
3.552522e-07
3.724677e-07
3.984409e-07
4.287137e-07
4.661601e-07
5.105643e-07
5.632653e-07
3.618143e-07
3.720174e-07
3.894166e-07
4.093657e-07
4.370285e-07
4.698494e-07
5.101339e-07
5.576125e-07
6.137556e-07
-0.9965275
-0.9961654
-1.007162
-1.011468
-1.002068
-0.9981732
-0.9987243
-1.002208
-0.9969324
-0.9716779
-1.001831
-0.9867944
-0.9802167
-0.9840999
-0.9829147
-0.9723955
-0.9822422
-0.9762919
-0.9815218
-1.01094
-0.9930722
-1.000565
-1.006807
-1.00271
-1.00566
-1.00385
-1.002221
-1.001799
-1.001447
-0.9752269
-1.010283
-0.9942934
-0.9994825
-0.9952097
-0.9966493
-0.993063
-0.9943601
-0.9921375
-0.9938541
-0.9924714
-0.9985114
-0.9979172
-0.9998196
-0.9966024
-0.9966165
-0.9932613
-0.9942675
-0.9915353
-0.9939021
-0.9841185
-1.003712
-0.9986486
-1.004302
-1.000291
-1.003905
-0.9993198
-1.005391
-0.9977804
-1.004053
-0.9900986
-1.004342
-0.9974602
-0.9975831
-0.9894624
-0.9919536
-0.9864061
-0.992996
-0.9854837
-0.9932157
-0.9791273
-0.9994571
-0.9970362
-1.007689
-1.002793
-1.010523
-1.0058
-1.020572
-1.009598
-1.02542
-1.010522
-1.014235
-1.016571
-1.008775
-1.007344
-1.005397
-1.004771
-1.015594
-1.016013
-1.021541
-0.9851597
-0.9713593
-0.9817478
-0.9838872
-0.9885439
-0.9738226
-0.9832286
-1.018504
-1.016212
-1.016166
-1.053137
-1.005957
-1.028241
-1.082809
-1.10627
-1.120792
-1.128841
-1.110389
-1.126822
-1.12104
4.049749e-08
4.019357e-08
3.609694e-08
6.24995e-08
7.053079e-08
7.758415e-08
8.597781e-08
1.014319e-07
1.11391e-07
1.113462e-07
8.217516e-08
1.057958e-07
1.016982e-07
9.757051e-08
1.033876e-07
1.151646e-07
1.264114e-07
1.350016e-07
1.454634e-07
1.593031e-07
1.25326e-07
1.526753e-07
1.604159e-07
1.669349e-07
1.753198e-07
1.916829e-07
2.05573e-07
2.276799e-07
2.488878e-07
2.756093e-07
1.871013e-07
2.075529e-07
2.111391e-07
2.191016e-07
2.3075e-07
2.474053e-07
2.675596e-07
2.913451e-07
3.198111e-07
3.54686e-07
2.272469e-07
2.506678e-07
2.572934e-07
2.685373e-07
2.836691e-07
3.040912e-07
3.277804e-07
3.579586e-07
3.92962e-07
4.353472e-07
2.714609e-07
2.954203e-07
3.008031e-07
3.150407e-07
3.312132e-07
3.544915e-07
3.818808e-07
4.158799e-07
4.561439e-07
5.042717e-07
3.111796e-07
3.317233e-07
3.389653e-07
3.543841e-07
3.730449e-07
3.985376e-07
4.289843e-07
4.664946e-07
5.109007e-07
5.636609e-07
3.408756e-07
3.647291e-07
3.728923e-07
3.89389e-07
4.097348e-07
4.372453e-07
4.701414e-07
5.104206e-07
5.579131e-07
6.140493e-07
-1.002085
-0.9864285
-0.9848775
-0.9925381
-0.9866581
-0.9874846
-0.9876661
-0.9852648
-0.984653
-0.9860566
-1.002436
-1.001906
-0.9918394
-0.9987382
-0.9915034
-0.9936862
-0.9940359
-0.9919617
-0.9895831
-1.021315
-0.9777672
-0.9893969
-0.9899349
-0.9887736
-0.9881645
-0.9873169
-0.988491
-0.9872297
-0.985806
-0.9863464
-1.005343
-0.9940211
-0.998445
-0.9981589
-0.9962491
-0.9996356
-0.9945929
-1.000021
-0.9961116
-0.9975323
-0.9924454
-0.9918664
-0.9887002
-0.987117
-0.9856115
-0.9925111
-0.9841702
-0.9955762
-0.9839994
-0.9939073
-0.9992639
-0.9977498
-1.001589
-0.9958211
-0.9995303
-1.009166
-0.9955747
-1.012214
-1.001663
-0.9919673
-0.9911894
-0.987946
-0.978193
-0.9778625
-0.9785133
-0.987394
-0.9701918
-0.9902409
-0.9653767
-0.9908819
-0.9912198
-1.010011
-1.009775
-1.015133
-1.018948
-1.02854
-1.010064
-1.030846
-1.001971
-1.020938
-1.003892
-0.9570569
-0.9424335
-0.9399036
-0.9458739
-0.9485267
-0.9221351
-0.9506209
-0.8969157
-1.018476
-0.9675657
-1.01455
-1.010381
-1.042179
-1.068785
-1.089005
-1.075611
-1.086892
-1.044487
-1.09045
-1.049223
-0.899821
-0.9082049
-0.9766572
-1.014286
-1.036993
-0.9825791
-1.04848
-0.9107824
3.516223e-08
2.429375e-08
2.760737e-08
3.494152e-08
3.577874e-08
3.934481e-08
4.166632e-08
4.526668e-08
4.929193e-08
5.545987e-08
1.100834e-07
1.044193e-07
9.492074e-08
9.898097e-08
1.001135e-07
1.091439e-07
1.186266e-07
1.299704e-07
1.42713e-07
1.57747e-07
1.48663e-07
1.497132e-07
1.540092e-07
1.579608e-07
1.668249e-07
1.791667e-07
1.942312e-07
2.111537e-07
2.31666e-07
2.569225e-07
2.045239e-07
2.071754e-07
2.10211e-07
2.180668e-07
2.277648e-07
2.442272e-07
2.634477e-07
2.877187e-07
3.161284e-07
3.509381e-07
2.453552e-07
2.500889e-07
2.562439e-07
2.672245e-07
2.813243e-07
3.009707e-07
3.247035e-07
3.538363e-07
3.887695e-07
4.305907e-07
2.897449e-07
2.958801e-07
3.01402e-07
3.145825e-07
3.304717e-07
3.533387e-07
3.804414e-07
4.143779e-07
4.545566e-07
5.026993e-07
3.239939e-07
3.324014e-07
3.395147e-07
3.543424e-07
3.726774e-07
3.979519e-07
4.283147e-07
4.656287e-07
5.099838e-07
5.625958e-07
3.554164e-07
3.646832e-07
3.732359e-07
3.892961e-07
4.096109e-07
4.36922e-07
4.698073e-07
5.09977e-07
5.57468e-07
6.136171e-07
-0.9996543
-0.9852111
-0.991073
-0.9915096
-0.9922046
-0.9916358
-0.9908653
-0.9905426
-0.9890616
-0.9918352
-1.00222
-0.9947179
-0.9917114
-0.9901463
-0.9923486
-0.9924395
-0.9910513
-0.9917774
-0.9894873
-1.014512
-0.9837467
-0.9948521
-0.9968978
-0.9956454
-0.9955556
-0.9957392
-0.99392
-0.9948248
-0.9912671
-0.9868113
-1.003496
-0.9923999
-1.002293
-0.9959812
-0.9954558
-0.9977408
-0.9918805
-0.9964388
-0.9903537
-0.9986165
-0.9950392
-0.9943957
-0.994666
-0.9925642
-0.9919288
-0.9920148
-0.9869919
-0.9876008
-0.9805621
-0.9987276
-1.005509
-0.9977969
-1.005597
-1.001443
-1.001308
-1.008319
-0.9985101
-1.004463
-0.9909987
-1.000698
-0.9984257
-0.9788834
-0.9848655
-0.9808535
-0.9777996
-0.9810309
-0.9700992
-0.977108
-0.952669
-1.007066
-1.008661
-1.002987
-1.015868
-1.021751
-1.010333
-1.013743
-1.011393
-1.017529
-0.994994
-1.036098
-1.011
-0.9384121
-0.9212968
-0.9100168
-0.9020675
-0.8963622
-0.8951397
-0.895275
-0.8851179
-1.039949
-0.9906478
-0.9999825
-0.9952447
-1.00479
-1.021717
-1.016186
-1.02712
-1.013459
-1.017778
-1.111894
-1.096718
-0.9031794
-0.6512209
-0.7437817
-0.7997048
-0.8001875
-0.8312013
-0.8211651
-0.8221511
3.091374e-08
1.85862e-08
2.62327e-08
2.944877e-08
2.938915e-08
3.140934e-08
3.224699e-08
3.655416e-08
3.950001e-08
4.443321e-08
1.169979e-07
1.050721e-07
9.650483e-08
9.189215e-08
9.046176e-08
9.874178e-08
1.06369e-07
1.16499e-07
1.269079e-07
1.415634e-07
1.482237e-07
1.486075e-07
1.501378e-07
1.548384e-07
1.610891e-07
1.72837e-07
1.859565e-07
2.038117e-07
2.236681e-07
2.486331e-07
2.06684e-07
2.071117e-07
2.079132e-07
2.149494e-07
2.236185e-07
2.392215e-07
2.575942e-07
2.811139e-07
3.088165e-07
3.428281e-07
2.444868e-07
2.490004e-07
2.554515e-07
2.656388e-07
2.796214e-07
2.986279e-07
3.219682e-07
3.51075e-07
3.858322e-07
4.275318e-07
2.905791e-07
2.940861e-07
3.004447e-07
3.134336e-07
3.294218e-07
3.519671e-07
3.788377e-07
4.125951e-07
4.524826e-07
5.00491e-07
3.24895e-07
3.302206e-07
3.388076e-07
3.532423e-07
3.722106e-07
3.97152e-07
4.276319e-07
4.648375e-07
5.092747e-07
5.618753e-07
3.589718e-07
3.635676e-07
3.72997e-07
3.888359e-07
4.093779e-07
4.366212e-07
4.694573e-07
5.096546e-07
5.570843e-07
6.1323e-07
-1.001178
-0.9881816
-0.9850745
-0.9953433
-0.9911253
-0.9963109
-0.9909544
-0.9931224
-0.9896546
-0.9985349
-1.001937
-1.000423
-0.9901812
-0.9955961
-0.9906178
-0.996489
-0.9907991
-0.9934218
-0.9906478
-1.016141
-0.9783077
-0.9915579
-0.9926048
-0.9927731
-0.9877705
-0.9931805
-0.9868568
-0.9932659
-0.9871783
-0.9847667
-1.008888
-0.990813
-1.001927
-0.9944539
-0.9950876
-1.000712
-0.9928349
-1.002589
-0.995086
-0.9952713
-0.9933817
-0.9877503
-0.9923802
-0.9890541
-0.9840953
-0.996034
-0.9815556
-0.9995543
-0.9840077
-0.9941317
-1.003666
-0.9919494
-1.003573
-0.9946128
-0.99326
-1.012615
-0.9890986
-1.016814
-0.9999571
-0.9958752
-0.9914954
-0.9768493
-0.9811021
-0.9725917
-0.9743149
-0.9827167
-0.9677863
-0.9930726
-0.972052
-1.004833
-1.007776
-1.004639
-1.018697
-1.00575
-1.008265
-1.027291
-1.015336
-1.037154
-1.025565
-1.039812
-1.015652
-0.9343868
-0.904257
-0.8931917
-0.9150941
-0.9162851
-0.9201948
-0.9502482
-0.9345897
-1.054528
-1.008592
-1.025947
-1.021745
-1.023321
-1.053959
-1.046491
-1.081619
-1.070611
-1.06359
-1.128844
-1.107585
-0.9321816
-0.7158964
-0.6746608
-0.7117488
-0.5482352
-0.6802933
-0.6836488
-0.4547939
1.607091e-08
2.147597e-08
2.454728e-08
2.966929e-08
3.016307e-08
3.155997e-08
3.500435e-08
3.685032e-08
4.100429e-08
4.511622e-08
1.140851e-07
1.016554e-07
9.835022e-08
9.186608e-08
9.02318e-08
9.817002e-08
1.05919e-07
1.152485e-07
1.26567e-07
1.404961e-07
1.479978e-07
1.476988e-07
1.489138e-07
1.52158e-07
1.581021e-07
1.687584e-07
1.821247e-07
1.985581e-07
2.184564e-07
2.425349e-07
2.03855e-07
2.068863e-07
2.085252e-07
2.135799e-07
2.220498e-07
2.364618e-07
2.546023e-07
2.774563e-07
3.05087e-07
3.38491e-07
2.440363e-07
2.485182e-07
2.543637e-07
2.648013e-07
2.782746e-07
2.968659e-07
3.199211e-07
3.487387e-07
3.831151e-07
4.245565e-07
2.899269e-07
2.938875e-07
3.009131e-07
3.129908e-07
3.291579e-07
3.512075e-07
3.781088e-07
4.115414e-07
4.515289e-07
4.993014e-07
3.254599e-07
3.302907e-07
3.386384e-07
3.531875e-07
3.720065e-07
3.969492e-07
4.272903e-07
4.64547e-07
5.088205e-07
5.614453e-07
3.590266e-07
3.636588e-07
3.731787e-07
3.88759e-07
4.094137e-07
4.364775e-07
4.694516e-07
5.094789e-07
5.56976e-07
6.130897e-07
-1.002231
-0.9887275
-0.992321
-0.9957918
-0.9961898
-0.99577
-0.9947027
-0.9963467
-0.9924772
-0.9938548
-1.001698
-0.9976366
-0.991694
-0.9925262
-0.9931728
-0.9940235
-0.9921654
-0.9946412
-0.9917401
-1.012727
-0.9815401
-0.992658
-0.9925434
-0.9933002
-0.9921905
-0.9945143
-0.9908781
-0.9951868
-0.990195
-0.9841497
-1.003732
-0.9891892
-1.001435
-0.9920704
-0.9945706
-0.999142
-0.9914938
-1.002058
-0.9931625
-0.9977829
-0.9941824
-0.9884695
-0.9936468
-0.9875399
-0.9862539
-0.993038
-0.9843817
-0.9982023
-0.9865486
-0.9991986
-1.00484
-0.9921693
-1.003666
-0.9911037
-0.9930362
-1.008377
-0.9954274
-1.01766
-1.005453
-0.999076
-0.9952513
-0.9758793
-0.9810176
-0.9718954
-0.9768657
-0.9764305
-0.9724882
-0.9919086
-0.9777007
-1.012934
-1.009723
-1.002705
-1.016543
-1.005574
-1.010004
-1.023115
-1.01701
-1.036825
-1.04508
-1.043969
-1.008519
-0.9361087
-0.9002066
-0.8944363
-0.9142351
-0.91111
-0.9262558
-0.9479595
-0.9512691
-1.05598
-0.9875282
-1.030733
-1.017602
-1.026825
-1.053455
-1.050831
-1.085588
-1.073049
-1.09183
-1.131566
-1.120743
-0.9528331
-0.7060498
-0.6927561
-0.7026994
-0.5599187
-0.7290876
-0.6786579
-0.542248
3.655235e-08
2.28514e-08
2.184028e-08
3.006746e-08
3.036252e-08
3.249129e-08
3.386362e-08
3.733815e-08
4.068562e-08
4.523067e-08
1.1096e-07
9.907594e-08
9.861947e-08
9.157933e-08
9.049343e-08
9.810025e-08
1.046766e-07
1.151263e-07
1.262763e-07
1.403281e-07
1.521701e-07
1.46823e-07
1.479964e-07
1.524069e-07
1.578758e-07
1.687228e-07
1.817884e-07
1.983007e-07
2.183154e-07
2.424311e-07
2.02466e-07
2.064644e-07
2.071201e-07
2.135969e-07
2.216076e-07
2.36547e-07
2.541272e-07
2.775199e-07
3.048505e-07
3.385213e-07
2.465993e-07
2.483363e-07
2.54586e-07
2.646815e-07
2.781655e-07
2.965999e-07
3.199225e-07
3.483644e-07
3.831387e-07
4.243898e-07
2.884947e-07
2.942182e-07
3.000963e-07
3.130651e-07
3.289332e-07
3.511902e-07
3.779386e-07
4.115644e-07
4.513821e-07
4.993269e-07
3.252504e-07
3.305532e-07
3.385972e-07
3.530998e-07
3.718336e-07
3.96703e-07
4.272162e-07
4.643022e-07
5.088108e-07
5.613405e-07
3.585491e-07
3.636179e-07
3.728725e-07
3.887275e-07
4.092749e-07
4.364796e-07
4.693159e-07
5.09503e-07
5.568911e-07
6.130786e-07
-1.000349
-0.982666
-0.9805428
-0.9878661
-0.9833994
-0.9861193
-0.9827498
-0.98472
-0.9814226
-1.000684
-1.005307
-1.001078
-0.9917218
-0.9962465
-0.9923911
-0.9951632
-0.9918286
-0.9938004
-0.9904871
-1.02202
-0.980837
-0.9941472
-0.9912855
-0.9937634
-0.9913361
-0.9925064
-0.9902079
-0.9906868
-0.987448
-0.9898988
-1.010271
-0.9932836
-1.001968
-0.9988826
-0.9997725
-0.9991689
-0.9983932
-0.9979566
-0.9948824
-0.994958
-0.9966182
-0.98986
-0.9934527
-0.9903511
-0.9919067
-0.9903364
-0.9885545
-0.9859664
-0.9796432
-0.998431
-1.00515
-0.9941601
-1.005592
-1.00036
-1.00365
-1.00477
-1.007148
-1.003174
-0.9929629
-0.9973676
-0.9929007
-0.9786883
-0.9844202
-0.9802247
-0.9787744
-0.9826489
-0.9781221
-0.9767498
-0.9541662
-0.9984179
-1.000998
-1.000704
-1.018261
-1.018772
-1.015765
-1.011773
-1.01547
-1.018057
-0.995412
-1.025988
-1.003045
-0.9386372
-0.9208348
-0.9124145
-0.903982
-0.9018179
-0.8989257
-0.9005382
-0.8879863
-1.039689
-0.9916789
-1.00114
-0.9946257
-1.012552
-1.01717
-1.026202
-1.026905
-1.017188
-1.021118
-1.111849
-1.097508
-0.9056
-0.6579799
-0.7448507
-0.7956026
-0.8133079
-0.8302875
-0.8240742
-0.8288381
3.979127e-08
2.201888e-08
2.493183e-08
2.902348e-08
2.981622e-08
3.001225e-08
3.393933e-08
3.58249e-08
4.057614e-08
4.381959e-08
1.152704e-07
1.057111e-07
9.832779e-08
9.197364e-08
9.103232e-08
9.851641e-08
1.073998e-07
1.161734e-07
1.278985e-07
1.413019e-07
1.460471e-07
1.493299e-07
1.509545e-07
1.552113e-07
1.616806e-07
1.728648e-07
1.862336e-07
2.035393e-07
2.239038e-07
2.487332e-07
2.070329e-07
2.075541e-07
2.093509e-07
2.150499e-07
2.24091e-07
2.390887e-07
2.579641e-07
2.806763e-07
3.090442e-07
3.425745e-07
2.439196e-07
2.494952e-07
2.550425e-07
2.660926e-07
2.796585e-07
2.98786e-07
3.218962e-07
3.512205e-07
3.857677e-07
4.276318e-07
2.916722e-07
2.947212e-07
3.014064e-07
3.13645e-07
3.297433e-07
3.519179e-07
3.790282e-07
4.124416e-07
4.526086e-07
5.00378e-07
3.24885e-07
3.304242e-07
3.387068e-07
3.533442e-07
3.721607e-07
3.972149e-07
4.275354e-07
4.649083e-07
5.092138e-07
5.619201e-07
3.589997e-07
3.635758e-07
3.732588e-07
3.88872e-07
4.096738e-07
4.366925e-07
4.697398e-07
5.097147e-07
5.572398e-07
6.132834e-07
-0.9952459
-0.9921932
-0.988999
-0.9953312
-1.000135
-0.9903247
-0.9994544
-0.9959476
-0.9934666
-0.998171
-0.9995878
-0.9968191
-0.9815496
-0.9887253
-0.9890134
-0.9851504
-0.9896892
-0.9833137
-0.9890071
-1.017089
-0.9819877
-0.9932901
-0.9911677
-0.9927074
-0.9929138
-0.9920621
-0.99203
-0.9927093
-0.9902826
-0.9893796
-1.005286
-0.990363
-0.998594
-0.9917822
-0.9941258
-0.9936984
-0.9931482
-0.9983492
-0.9945052
-1.001087
-0.9995396
-0.9900304
-0.9925812
-0.9862745
-0.9870635
-0.9877398
-0.9860476
-0.9946036
-0.9851121
-0.9987365
-1.006855
-0.9966906
-1.00327
-0.9920873
-0.9980041
-0.9954961
-0.9931848
-1.009331
-0.9971378
-0.9942375
-1.001348
-0.9836786
-0.9776152
-0.9726557
-0.9794203
-0.9740494
-0.9755429
-0.985892
-0.964975
-0.9937661
-1.008797
-1.000955
-1.009147
-1.007663
-1.017776
-1.009815
-1.010937
-1.027444
-0.9991331
-1.023646
-1.024606
-0.9525003
-0.9393803
-0.9400814
-0.944212
-0.9152187
-0.9318163
-0.9515859
-0.8991958
-1.018077
-0.9878941
-1.019843
-1.011121
-1.050181
-1.068026
-1.047266
-1.095
-1.095577
-1.042794
-1.098537
-1.05435
-0.9042788
-0.9113722
-0.9833328
-1.002665
-0.9121225
-1.043086
-1.02122
-0.9031069
4.570435e-08
2.380867e-08
2.676908e-08
3.599399e-08
3.599036e-08
3.958244e-08
4.187078e-08
4.626195e-08
4.905398e-08
5.54371e-08
1.103836e-07
1.060199e-07
9.510269e-08
9.944113e-08
1.008455e-07
1.10003e-07
1.189798e-07
1.296678e-07
1.415724e-07
1.575527e-07
1.493863e-07
1.502228e-07
1.537038e-07
1.579246e-07
1.667803e-07
1.788378e-07
1.937991e-07
2.102671e-07
2.312135e-07
2.570847e-07
2.02358e-07
2.083066e-07
2.087398e-07
2.183077e-07
2.278349e-07
2.447554e-07
2.631512e-07
2.876501e-07
3.157237e-07
3.508311e-07
2.435927e-07
2.504527e-07
2.558519e-07
2.67217e-07
2.81207e-07
3.006668e-07
3.245631e-07
3.534949e-07
3.886858e-07
4.305463e-07
2.868015e-07
2.965117e-07
3.00413e-07
3.147648e-07
3.302881e-07
3.534638e-07
3.803257e-07
4.143927e-07
4.543566e-07
5.026374e-07
3.235812e-07
3.317765e-07
3.389403e-07
3.537879e-07
3.722463e-07
3.974757e-07
4.280228e-07
4.653225e-07
5.098644e-07
5.624957e-07
3.551531e-07
3.64612e-07
3.731569e-07
3.893378e-07
4.096347e-07
4.370946e-07
4.698389e-07
5.101065e-07
5.574356e-07
6.136565e-07
-0.9894572
-0.984978
-0.9972574
-0.9994813
-0.9953438
-0.9930677
-0.9905735
-0.9926986
-1.005589
-1.016971
-1.009897
-1.006015
-1.003715
-1.006503
-1.003289
-1.004045
-1.004274
-1.009643
-1.006702
-0.976956
-0.9903576
-1.000805
-0.9957102
-0.9978133
-0.9961465
-0.9955836
-0.9938317
-0.99351
-0.9906244
-1.026002
-0.9979158
-1.000312
-1.001479
-1.003145
-1.002659
-1.001937
-1.001983
-1.000147
-1.00081
-0.9791431
-1.000211
-0.9951527
-0.9949482
-0.9968019
-0.9973478
-0.9947551
-0.9949176
-0.9905599
-0.9927048
-1.02872
-1.001362
-1.008462
-1.00413
-1.00744
-1.004277
-1.006669
-1.0074
-1.001595
-1.009085
-1.001416
-1.001217
-1.008508
-0.9936557
-0.9956598
-0.9913747
-0.9933727
-0.9940669
-0.9877794
-0.995989
-1.058964
-0.9923637
-1.014302
-1.004898
-1.013472
-1.009878
-1.022453
-1.026631
-1.01169
-1.03339
-1.06556
-1.012901
-1.032059
-1.003711
-1.010866
-1.006483
-1.020567
-1.025851
-1.006318
-1.02952
-1.030268
-0.9629012
-0.9889215
-0.9946253
-0.9860136
-0.9898345
-1.034719
-1.036146
-0.9981374
-1.045275
-1.086581
-0.988442
-0.9537699
-0.9764822
-0.9755781
-0.9567588
-1.140421
-1.086884
-0.9948547
-1.126674
3.74808e-08
3.799924e-08
5.014227e-08
6.499146e-08
7.459934e-08
7.991708e-08
8.293599e-08
9.22611e-08
1.020545e-07
1.152569e-07
8.664623e-08
1.050363e-07
1.004099e-07
9.851208e-08
1.039668e-07
1.136341e-07
1.245303e-07
1.28479e-07
1.424298e-07
1.605578e-07
1.387427e-07
1.542822e-07
1.603616e-07
1.668274e-07
1.752236e-07
1.914777e-07
2.062038e-07
2.264662e-07
2.486082e-07
2.763558e-07
1.912357e-07
2.074082e-07
2.103515e-07
2.193092e-07
2.300298e-07
2.468699e-07
2.677146e-07
2.897727e-07
3.193049e-07
3.543156e-07
2.399751e-07
2.507956e-07
2.575538e-07
2.689093e-07
2.835489e-07
3.040065e-07
3.276235e-07
3.577788e-07
3.928445e-07
4.354738e-07
2.832743e-07
2.951937e-07
3.00967e-07
3.15169e-07
3.311973e-07
3.544013e-07
3.82023e-07
4.155542e-07
4.561097e-07
5.041031e-07
3.295795e-07
3.321042e-07
3.3875e-07
3.542881e-07
3.727542e-07
3.983526e-07
4.287014e-07
4.663693e-07
5.107574e-07
5.636437e-07
3.608837e-07
3.642058e-07
3.729593e-07
3.894032e-07
4.101173e-07
4.374121e-07
4.705491e-07
5.105237e-07
5.580958e-07
6.141174e-07
-0.9864607
-1.002252
-0.9961434
-1.006827
-0.9889397
-0.9998362
-0.989702
-0.9997367
-1.005946
-1.043275
-0.9971409
-1.004742
-1.00413
-1.000042
-1.000582
-0.9999112
-0.999595
-1.002254
-1.003945
-1.012519
-0.982894
-0.993491
-0.9905204
-0.9873238
-0.9866133
-0.9894987
-0.9870629
-0.9878096
-0.9851297
-1.027806
-0.9873097
-0.998776
-0.9987324
-0.9952903
-0.9971515
-0.9973294
-0.9964812
-0.9989914
-0.996454
-1.051803
-0.9852164
-0.9952259
-0.9936099
-0.9921844
-0.9920907
-0.9930062
-0.9925905
-0.9940558
-0.9906925
-1.061098
-0.9906576
-1.003774
-1.002612
-1.002281
-1.005375
-1.004342
-1.005715
-1.00676
-1.004208
-1.039039
-0.995348
-1.002092
-0.9972282
-0.9977063
-0.9981018
-0.9967564
-0.9979702
-1.000408
-0.9975083
-1.052018
-0.9887556
-1.012777
-1.008071
-1.014263
-1.02432
-1.015645
-1.018742
-1.025007
-1.022689
-1.067832
-1.018245
-1.044094
-1.039486
-1.043185
-1.049228
-1.03554
-1.025441
-1.042717
-1.036143
-0.9863018
-0.9855891
-1.047692
-1.054636
-1.050684
-1.066719
-1.037273
-1.048396
-1.065314
-1.053238
-1.003437
-1.032971
-1.095889
-1.129573
-1.115113
-1.169523
-1.143355
-1.134199
-1.139325
-1.144531
-0.9875121
-0.9999688
-0.9981383
-0.9992448
-1.005561
-0.9980459
-0.9819075
-1.000455
-0.9978169
3.123223e-08
3.850033e-08
2.757906e-08
2.665055e-08
2.60812e-08
2.636113e-08
2.390926e-08
2.442158e-08
2.660716e-08
3.28413e-08
9.153751e-08
1.0613e-07
1.15631e-07
1.142972e-07
1.232955e-07
1.317508e-07
1.422904e-07
1.558086e-07
1.713502e-07
1.907483e-07
1.573917e-07
1.553605e-07
1.583128e-07
1.671872e-07
1.762809e-07
1.879444e-07
2.029736e-07
2.225955e-07
2.455537e-07
2.731839e-07
2.070545e-07
2.047727e-07
2.127164e-07
2.215189e-07
2.331058e-07
2.497801e-07
2.700506e-07
2.944057e-07
3.243309e-07
3.600288e-07
2.700954e-07
2.517221e-07
2.547468e-07
2.693413e-07
2.831491e-07
3.03513e-07
3.273549e-07
3.573764e-07
3.927477e-07
4.352162e-07
2.929118e-07
2.993179e-07
2.987496e-07
3.157911e-07
3.312856e-07
3.550124e-07
3.822782e-07
4.163356e-07
4.568125e-07
5.051343e-07
3.060747e-07
3.309028e-07
3.364927e-07
3.542529e-07
3.720305e-07
3.979398e-07
4.282608e-07
4.659531e-07
5.10385e-07
5.631892e-07
3.790064e-07
3.604756e-07
3.728232e-07
3.895728e-07
4.098283e-07
4.373865e-07
4.702155e-07
5.10327e-07
5.57742e-07
6.138154e-07
-1.031274
-1.005218
-1.014178
-1.012059
-0.9910451
3.081663e-08
-1.00331
1.34088e-08
-0.994402
3.052766e-08
5.570651e-08
-0.9969298
-0.9981423
9.044527e-09
1.325727e-08
-0.9992474
-7.752038e-09
3.669176e-08
-0.9987122
-0.9992029
9.025953e-09
1.622656e-08
-0.9908162
-7.770746e-09
9.637845e-08
-0.9976237
-0.9978558
6.949596e-09
1.700146e-08
-0.9980754
-3.610312e-08
1.152796e-07
-0.9978949
-0.9964258
6.569972e-10
1.984168e-08
-0.9921508
-5.045116e-08
1.285211e-07
-0.9999844
-0.9966415
-1.099433e-09
2.522974e-08
-0.9959779
-7.362413e-08
1.48114e-07
-1.000425
-1.001285
-7.028563e-09
3.124439e-08
-0.9478695
-9.061253e-08
1.785851e-07
-0.9954315
-0.9880332
-1.097793e-08
3.692152e-08
-0.9882394
-1.098979e-07
2.088975e-07
-0.9982663
-0.9989181
-1.330267e-08
4.565635e-08
-0.9627814
-1.50168e-07
1.195497e-07
-0.9992586
-0.9985678
-1.759065e-08
5.557875e-08
3.565262e-08
7.800408e-08
3.809631e-08
3.396407e-08
9.166607e-08
7.365743e-08
8.435489e-08
1.419757e-07
1.006784e-07
9.524627e-08
1.394908e-07
1.191682e-07
1.637776e-07
1.981404e-07
1.543243e-07
1.441264e-07
2.025416e-07
1.673437e-07
2.007836e-07
2.214299e-07
2.020762e-07
1.931291e-07
2.592146e-07
2.163645e-07
2.52217e-07
2.432281e-07
2.565433e-07
2.366834e-07
3.120405e-07
2.680082e-07
2.809682e-07
2.609284e-07
3.204549e-07
2.711326e-07
3.494167e-07
3.046944e-07
3.056323e-07
3.273156e-07
3.552134e-07
3.013336e-07
3.976472e-07
3.393564e-07
3.507389e-07
3.739101e-07
3.987336e-07
3.456417e-07
4.28396e-07
3.677543e-07
-1.015022
-0.9811204
-0.988176
-1.003532
-0.9987364
-0.9860061
-0.9948953
1.642364e-08
-0.9962242
7.381655e-09
-1.008157
-0.9889608
-0.9856993
-1.007729
-0.9984741
-0.9844374
-0.9931557
1.750155e-08
-0.9970423
4.600177e-09
-1.004831
-0.9914079
-0.9839328
-1.006113
-0.996787
-0.9836974
-0.9990862
1.575601e-08
-0.9971726
8.033701e-08
-3.062539e-10
-1.006975
-0.9967756
-0.9844452
-1.006033
-0.9916213
-0.9848584
-0.998996
8.90488e-09
-0.9945543
4.055216e-08
5.444955e-09
-1.00732
-0.9985022
-0.9834726
-1.006329
-0.9948161
-0.9859459
-0.9994176
-3.829164e-09
6.799538e-09
-0.9950226
9.31225e-09
1.283559e-09
-1.00444
-0.9980351
-0.9811103
-1.004808
-0.989886
-0.9803212
-0.9989072
1.574071e-09
-0.998572
-3.977076e-09
8.08016e-09
-1.004435
-0.9984916
-0.982512
-1.009228
-0.9876607
-0.9850343
-0.9960109
-1.827105e-08
4.396598e-09
-0.995557
1.185705e-08
1.262785e-08
-1.002234
-1.011584
-0.9884806
-1.025087
-0.9999561
-1.007494
-0.9954317
1.868152e-08
4.930784e-09
-0.9930328
1.951523e-08
1.488813e-08
-1.001274
-1.040286
-1.002993
-1.016486
-1.000293
-1.009773
-1.005395
-1.007916
-1.005353
-0.9833194
-1.005214
-0.9978943
-1.008562
-1.007392
-1.003972
-1.003657
-1.009278
-1.009463
-1.011962
-0.9909946
-1.010302
-0.9858716
-1.044925
-1.015045
-1.011168
-1.003509
-0.9868258
-1.009073
-1.041338
-1.014382
-1.016695
-1.006101
-1.0106
-1.005064
-1.042422
-1.011811
-1.009044
-1.00471
-0.9879621
-1.009649
-1.043402
-1.01388
-1.012018
-1.001737
-1.008851
-1.006216
-1.009218
-1.008647
-0.9905271
-1.016941
-0.970849
-1.018452
-1.012301
-0.9893525
-1.048626
-1.004833
-0.9925625
-1.025376
-0.9922957
-1.058712
-1.004725
-1.026066
-1.088145
-1.041746
-1.011616
-1.05463
-1.010525
-1.058553
-1.029156
-1.070203
-1.047238
-1.011685
-1.062994
-1.006885
-1.01108
-1.044515
-1.048215
-1.05174
-1.006231
-1.041265
-1.006293
-1.050142
-1.050012
-0.989447
-1.041527
-0.9904559
-1.041565
-1.046969
-1.08285
-1.033245
-0.9926696
-1.094617
-0.9974276
-1.048393
-1.026677
-1.021123
-1.010488
-1.054885
-0.9998451
-1.024072
-1.029279
-0.9921675
-0.9983291
-0.9637872
-1.02785
-0.979196
-0.9839174
-1.008596
-1.061814
-1.02557
-0.9965816
2.699778e-08
1.189663e-08
-0.9982895
3.808315e-08
-0.9981158
4.966161e-09
1.218951e-08
-0.9759753
-0.9874781
6.301917e-09
3.586299e-08
-1.000185
8.150204e-09
1.504577e-08
-0.9969725
-0.9818227
-9.075072e-09
6.340405e-08
-0.9983846
1.837764e-09
1.605148e-08
-0.9961978
-0.9934709
-1.124389e-08
8.856392e-08
-1.003708
-2.656644e-09
1.878728e-08
-0.9844862
-0.9865865
-3.655887e-08
1.062821e-07
-0.9999156
-6.783819e-09
2.295877e-08
-0.9959012
-0.9895964
-6.144447e-08
1.324989e-07
-0.9833163
-1.137919e-08
3.035525e-08
-0.9879521
-1.011142
-7.648024e-08
1.537144e-07
-0.9985506
-1.392763e-08
4.03417e-08
-1.005811
-0.9818412
-9.185017e-08
1.841844e-07
-0.9980042
-1.688872e-08
4.693805e-08
-0.9977612
-0.994404
-1.201352e-07
2.087574e-07
-0.9842704
-1.708143e-08
5.273017e-08
-0.9821534
-0.9794616
-1.433607e-07
2.410131e-07
3.223336e-08
8.948097e-08
7.022207e-08
4.488121e-08
9.042304e-08
8.995931e-08
1.382123e-07
1.161382e-07
1.030547e-07
1.256764e-07
1.361451e-07
1.958625e-07
1.692616e-07
1.452382e-07
1.786406e-07
1.901587e-07
2.611016e-07
2.187113e-07
1.93868e-07
2.157642e-07
2.353973e-07
3.015222e-07
2.64371e-07
2.447716e-07
2.751739e-07
2.798455e-07
3.195404e-07
3.054036e-07
2.488223e-07
2.762155e-07
3.080398e-07
4.034671e-07
3.413883e-07
3.079531e-07
3.404287e-07
3.491773e-07
4.256582e-07
3.662959e-07
3.508864e-07
3.618585e-07
-1.025563
-1.039181
-1.051405
-1.021167
-1.018321
-0.9988442
-0.9912959
-1.02579
-0.9845137
-1.009488
-0.9817977
-0.9769275
-0.9732165
-0.9872474
-1.018452
-1.015864
-1.012854
-0.9716414
-0.9780663
-0.9869527
-0.9884034
-1.013444
-1.016822
-1.012806
-0.9688731
-0.9760467
-0.9885245
-0.99171
-1.011619
-1.017978
-1.001189
-0.9723285
-0.974889
-0.9884323
-0.9893408
-1.014572
-1.016848
-0.9909353
-0.9684451
-0.9692002
-0.9886119
-0.9881915
-1.013629
-1.014282
-0.9857287
-0.9774783
-0.974038
-0.988103
-0.9888754
-1.014928
-1.014718
-1.003397
-0.9711079
-0.9737023
-0.9872359
-0.9874823
-1.01279
-1.012788
-0.9845265
-0.97252
-0.9719719
-0.9888158
-0.9868738
-1.013216
-1.012219
-1.010319
-1.075304
-1.037918
-1.001785
-0.9881576
-1.038558
-0.9960092
-1.022019
-1.100937
-1.054111
-1.016589
-0.9922586
-1.058302
-1.005386
-1.058327
-1.109928
-1.068013
-1.055606
-1.005868
-1.074939
-1.004512
-1.065086
-1.111556
-1.072456
-1.069833
-1.003321
-1.07787
-0.998338
-1.068539
-1.115438
-1.075492
-1.072053
-0.9984148
-1.080726
-1.00137
-1.071409
-1.114942
-1.075332
-1.073964
-1.001443
-1.080331
-1.000206
-1.071202
-1.107967
-1.070275
-1.071023
-1.000743
-1.074882
-1.005265
-1.062489
-1.083323
-1.056059
-1.062501
-1.007205
-1.054456
-1.018553
-1.03118
-0.9990193
-0.9727152
-1.012225
-1.003791
-0.9335275
-0.9442967
-1.083378
-1.001775
-1.039681
-0.9945048
-1.009133
-1.106866
-1.049286
-1.02027
-1.060012
-1.082511
-1.010413
-1.017806
-1.124504
-1.032684
-1.002041
-1.094126
-1.117669
-1.001106
-1.013708
-1.168092
-0.9374713
-1.05751
-1.137844
-1.114809
-0.9924691
-1.022324
-1.178931
-1.013048
-1.048414
-1.122104
-1.13257
-1.007006
-1.022398
-1.180795
-1.008947
-1.011396
-1.128534
-1.124283
-0.98719
-1.025018
-1.18633
-1.056439
-1.02139
-1.143416
-1.140906
-0.9861445
-0.9870184
-1.170742
-1.027406
-1.05346
-1.15821
-1.14734
-0.9940464
-1.007062
-1.140986
-1.01978
-0.9385511
-1.123581
-1.171628
-0.9973572
-0.9909098
-0.9952792
-0.9946962
-0.9935546
-0.9950417
-0.9986662
-0.995736
-0.9983231
-0.9909844
-0.9993963
-0.995143
-0.9882714
-0.9971697
-0.9909256
-0.9963799
-0.9942276
-0.9828832
-0.9929664
-1.001302
-0.9934159
-0.9897307
6.428608e-08
1.052196e-08
3.834184e-08
5.830411e-08
4.620144e-08
6.319135e-08
7.352927e-08
3.575124e-08
2.636951e-08
6.389765e-08
7.438106e-08
5.695501e-08
6.107527e-08
7.791865e-08
3.402244e-08
3.346792e-08
6.344892e-08
7.797428e-08
6.090154e-08
5.759827e-08
7.263795e-08
3.072587e-08
3.381712e-08
5.966972e-08
7.717818e-08
6.445527e-08
5.288366e-08
7.882996e-08
2.853339e-08
3.004772e-08
5.854765e-08
8.807521e-08
6.859012e-08