/*--------------------------------*- C++ -*----------------------------------*\
  =========                 |
  \\      /  F ield         | OpenFOAM: The Open Source CFD Toolbox
   \\    /   O peration     | Website:  https://openfoam.org
    \\  /    A nd           | Version:  7
     \\/     M anipulation  |
\*---------------------------------------------------------------------------*/
FoamFile
{
    version     2.0;
    format      ascii;
    class       volScalarField;
    location    "0.1";
    object      Uz;
}
// * * * * * * * * * * * * * * * * * * * * * * * * * * * * * * * * * * * * * //

dimensions      [0 1 -1 0 0 0 0];

internalField   nonuniform List<scalar> 
89125
(
-0.04147672
-0.04689472
-0.04487567
-0.04440945
-0.04418078
-0.03692887
-0.03913425
-0.04271728
-0.02058323
-0.01967285
-0.0203274
-0.0161574
-0.02132919
-0.01914635
-0.02335955
-0.01833816
-0.02205014
-0.005130189
0.007871276
-0.01759315
-0.01284056
-0.006161184
-0.01163653
-0.007982032
-0.006797134
-0.006402845
-0.009124137
-0.002818823
0.003935756
0.002497363
0.003109407
0.003066725
0.004431838
0.003920187
0.003918656
0.005044342
0.005920722
-0.003072822
6.651798e-05
-0.003266882
-0.0009123055
-0.001821965
-0.001709565
0.001186209
-0.002777925
0.001486728
0.0005184998
-0.003264288
0.0009896106
0.002102217
0.001992547
0.004078656
0.003282008
0.005619528
0.002165768
0.006657632
0.004270119
-0.00299674
4.701349e-05
0.003979944
0.001556764
0.004995851
0.003243261
0.002210569
0.001815014
0.0006788616
0.001729802
-0.003941662
0.006865601
0.01269568
0.01471291
0.01879542
0.01708267
0.02618165
0.01080023
0.016547
0.01327572
-0.002974127
0.01146523
0.02989714
0.03071646
0.03742388
0.03103423
0.04859158
0.019791
0.03330976
0.03241142
0.0001938169
0.008643476
0.03246882
0.04602822
0.04448991
0.04664888
0.04317008
0.05249765
0.04984741
0.03553356
-0.01541711
0.02298609
0.02657704
0.007034055
0.01666361
0.006858557
0.01183997
0.009268697
0.004546017
0.01433324
0.001067534
0.0001891058
-9.306937e-05
0.01015523
0.003182701
0.01012874
0.003407686
-0.006427811
0.00810051
-1.425605e-09
9.046209e-10
1.063448e-09
6.646449e-10
2.203195e-09
-1.682354e-09
-1.065856e-10
-6.403596e-09
-6.908874e-09
3.226281e-09
2.383784e-09
-2.647932e-09
-6.359024e-09
-8.529701e-09
-1.187491e-08
-1.230923e-08
-1.211348e-08
-8.595166e-09
1.58059e-09
-5.485562e-10
2.262764e-09
1.637208e-09
1.109959e-09
6.702062e-10
2.130435e-09
4.14954e-09
5.66885e-09
7.317251e-10
-2.453299e-09
-1.423554e-10
-6.421167e-10
-1.172114e-09
-9.707225e-10
-1.875159e-09
-1.646419e-09
-1.781436e-09
-9.652537e-10
-2.062141e-09
4.433204e-10
1.190309e-10
1.410478e-10
5.840604e-11
2.909715e-10
5.193688e-10
8.210114e-10
-2.771511e-09
-6.547078e-10
7.793219e-10
-1.106977e-10
-1.01123e-10
-1.555753e-10
-3.298861e-10
-2.379129e-10
-2.963072e-10
-3.185986e-09
-2.863547e-10
-1.976567e-10
5.358249e-12
-1.088035e-11
-2.821255e-12
9.961718e-11
1.034011e-10
2.175841e-10
-3.180165e-09
4.240313e-10
-3.420085e-10
1.633112e-10
-1.117467e-10
1.216361e-11
-1.061755e-10
-4.26598e-11
-8.942691e-11
-0.007980127
-0.01112807
-0.01689343
-0.01966257
-0.01645688
-0.01726255
-0.01716667
-0.01761983
-0.01644953
-0.01495332
-0.00129067
0.01051155
0.008253993
0.009770258
0.009510701
0.007757236
0.008112716
0.009252765
0.00896683
-0.0008061325
0.009093929
-0.004579813
-0.006011765
-0.004805302
-0.006875856
-0.007249108
-0.007187613
-0.006584926
-0.0074944
0.008619561
0.002302552
0.001763301
0.003640463
0.002451832
0.003280582
0.002049232
0.00182929
0.0007170991
0.001677576
-0.002548017
0.001384423
0.0004078537
0.001570324
0.001019387
0.001584853
-0.0003941385
0.0008417243
-0.002018865
-0.000528227
0.007096882
0.004444481
0.003123803
0.006177305
0.004569859
0.005407129
0.004339751
0.005364763
0.0036845
0.008034733
0.0006692258
0.002792297
-0.00454632
-0.0005738439
-0.002891165
-0.002267364
-0.0004519116
-0.001264096
-0.0004560288
0.005845612
0.01028046
0.009160075
0.02544243
0.02862848
0.03885405
0.03516531
0.03639932
0.03272207
0.03249906
0.04311948
-0.0003187012
-0.003125795
0.002461425
-0.006363226
0.007481234
-0.01465546
-0.01097115
-0.03260164
-0.01500717
-0.009221928
-0.0102596
0.007884375
0.05914852
0.07374458
0.07958683
0.08747838
0.09523171
0.07532132
0.09325372
0.120398
0.03064252
0.01805813
-0.03761063
-0.09137064
-0.08558715
-0.08165852
-0.0741988
-0.08327249
-0.08194799
-0.08632107
-2.928625e-09
-6.189766e-09
4.048099e-09
4.67989e-09
8.794812e-09
7.804423e-09
7.643725e-09
1.323288e-08
1.625991e-08
1.610754e-08
6.484972e-09
6.100006e-09
-6.318956e-10
-1.994048e-09
-2.517046e-09
1.020587e-09
2.031024e-09
-2.650604e-10
-4.126813e-09
-5.507853e-09
9.312366e-09
3.529294e-09
-2.623919e-09
-6.355279e-10
2.617927e-10
3.040665e-10
1.000437e-09
2.168628e-09
2.544092e-09
3.14043e-09
2.130891e-08
5.123236e-09
-2.552394e-09
-5.107188e-10
-1.435687e-09
-8.516208e-10
-1.288194e-09
-1.166157e-09
-1.277698e-09
-1.207185e-09
2.824452e-08
5.400819e-09
-1.679966e-09
-1.443964e-10
-3.947626e-10
-3.833084e-11
-1.564993e-12
1.527927e-10
3.51241e-10
5.002008e-10
2.838279e-08
3.386623e-09
-9.301197e-10
4.444266e-10
-5.106025e-10
-1.777686e-10
-3.945713e-10
-3.038639e-10
-3.682083e-10
-3.452154e-10
3.884274e-08
-8.58998e-10
6.425308e-10
-2.539177e-10
-1.50384e-12
-5.754743e-11
8.355209e-11
4.962749e-11
1.584703e-10
1.261145e-10
3.514573e-08
-2.686912e-09
1.052198e-09
-3.481704e-10
9.606885e-12
-1.184924e-10
-1.197783e-10
-8.978494e-11
-1.301254e-10
-1.244162e-10
0.003434752
0.009112966
0.006570725
0.002363929
0.002052093
0.00168065
0.002780828
0.00134659
0.002897265
-0.02997679
-0.004684814
-0.01022615
-0.01052032
-0.01371983
-0.01157005
-0.009980653
-0.01293561
-0.0105864
-0.01068314
-0.0005167828
0.007034545
-0.00114057
-0.00238592
-0.0004673815
-0.001808892
0.0007462361
-0.001027147
0.0005226667
-0.0003500824
0.004944806
-0.001197038
-0.0001955065
-0.001442216
-0.0003871056
-0.001085469
-0.001629808
0.0004983581
-0.0004695667
0.001570915
-0.002370245
-0.002130072
-0.001355273
-1.474756e-05
0.0001614564
0.0009844925
0.0008368904
0.001662927
0.003274021
0.003125624
-8.988251e-05
0.0006711567
0.003292828
0.002718174
0.002669135
0.005192008
0.005568258
0.005940858
0.006821747
0.009991338
-0.003141588
-0.004818278
0.003202761
-0.003625829
0.001411177
0.005546737
0.01150162
0.004088956
0.01409897
0.007224311
0.001691373
0.008660029
0.03072073
0.03448329
0.04455385
0.04536976
0.05590643
0.043164
0.0570102
0.04191405
-0.007390394
-0.006302439
0.02356126
0.006204241
0.03506204
0.003251229
0.03789314
0.008267611
0.05573114
0.008656824
0.01667656
0.01139415
0.05044031
0.142781
0.1436025
0.1415522
0.1523818
0.1270558
0.145523
0.1129478
0.007581311
-0.03170699
-0.1397165
-0.2215978
-0.2525133
-0.252883
-0.2599416
-0.2406634
-0.2595095
-0.2358325
-6.268628e-09
-2.289954e-09
-1.14179e-09
-9.57956e-09
-9.354359e-09
-5.711572e-09
-5.139291e-09
-3.450382e-09
-1.138714e-08
-1.038161e-08
5.073013e-09
3.074104e-09
4.795637e-11
4.183688e-09
4.01655e-09
6.455927e-09
7.323413e-09
9.376145e-09
8.766605e-09
8.200479e-09
-8.058191e-09
-2.648544e-09
-3.784207e-09
-1.63525e-09
-5.895324e-10
4.23668e-10
1.470155e-09
7.682863e-10
5.299591e-10
5.477035e-10
-1.431769e-10
1.521427e-10
-7.363979e-10
6.517e-10
1.070127e-10
1.207927e-09
8.399861e-10
1.473458e-09
1.219088e-09
1.426715e-09
-2.296001e-09
-9.836009e-10
-2.034935e-09
-4.066751e-10
-3.191472e-10
2.554293e-10
4.472968e-10
5.887121e-10
5.910329e-10
6.618761e-10
5.958391e-10
-8.084816e-10
-7.594944e-10
-2.124507e-11
-1.506619e-10
1.829882e-10
1.182547e-10
2.397888e-10
2.288936e-10
2.31268e-10
4.4789e-10
-8.964955e-10
-5.979366e-10
-3.199061e-10
-1.252126e-10
2.499155e-11
1.183103e-10
2.210916e-10
2.311133e-10
2.653947e-10
6.252756e-10
-1.053825e-09
-2.686887e-10
-4.210544e-10
-1.331059e-10
-1.91432e-10
-6.304024e-11
-1.240178e-10
-1.868979e-11
-1.048169e-10
-0.0003608006
-0.001509684
-0.002790011
-0.001425774
-0.001690943
-0.001087615
-0.001480103
-0.0004151284
-0.002492387
-0.02643123
0.001789406
0.002446795
0.003629988
0.0026975
0.005016282
0.004777747
0.002695249
0.006138519
0.002723251
-0.0004830702
0.002238682
0.0003974403
-0.002704759
0.0001085999
-0.00258803
-0.0001993287
-0.002073246
-0.0003091667
-0.0007188247
0.001793468
0.0004242565
0.001439054
0.0009239266
0.001820098
0.001496706
0.002134938
0.0005996941
0.002106208
0.0004629988
0.0008896022
-0.001187277
0.000838386
0.0005316331
-0.0006524288
0.001563255
-0.0001808142
0.0009016457
-0.001226119
0.00119129
0.0009351678
-0.0001002922
0.002309313
0.001464568
0.002744671
0.002619794
0.003243824
0.001429862
0.001315515
0.000158712
-0.004344266
-0.006268651
-0.002100226
-0.0008029713
0.0007242628
4.162923e-06
0.001692381
-0.003110498
-0.004253579
-0.009463903
0.001204798
-0.001363819
0.01431519
0.02028625
0.02651129
0.02131897
0.02177089
0.01344992
0.01589925
0.003815558
-0.008032042
-0.01277831
-0.0006796737
0.005629325
0.01681037
0.005646373
0.01315361
-0.002396347
0.004941017
0.003378855
0.002738193
0.01748507
0.02898404
0.07283858
0.1212655
0.1259352
0.1762335
0.153177
0.1718249
0.2161734
0.01475572
0.01396459
-0.04430069
-0.09436751
-0.1637405
-0.1874322
-0.2773788
-0.245954
-0.2549264
-0.3196784
-7.024349e-09
-1.668697e-09
2.2739e-09
1.753483e-09
3.4707e-09
3.775443e-09
5.711963e-09
6.191129e-09
6.404563e-09
6.050136e-09
2.577461e-09
2.919449e-09
1.888978e-09
-8.396599e-10
-5.602345e-10
6.63821e-10
5.573932e-10
1.406189e-10
-1.459127e-09
-1.625096e-09
-5.482981e-10
9.770491e-10
-2.084927e-09
-2.171442e-10
-3.183656e-10
4.455064e-10
7.851605e-10
1.301463e-09
9.878113e-10
1.459742e-09
1.906323e-09
1.700508e-09
3.493781e-10
2.467867e-11
2.03943e-10
3.955661e-10
3.862309e-10
2.692219e-10
1.932608e-11
-4.062162e-11
1.19765e-09
7.559068e-10
-8.018368e-10
1.512511e-10
-2.549731e-10
2.883518e-10
2.381722e-10
5.043117e-10
4.613209e-10
6.284584e-10
1.264079e-09
9.802354e-10
5.560135e-10
2.000514e-10
4.84859e-11
8.568514e-11
1.217891e-11
1.371825e-12
-8.568231e-11
-1.027708e-10
5.587938e-10
-2.225875e-10
-1.151528e-10
-1.029851e-10
-1.111243e-10
4.114706e-11
4.912827e-11
9.755749e-11
1.235121e-10
9.504074e-11
-4.18566e-10
-5.087513e-10
3.30069e-10
-2.253387e-10
2.906966e-11
-7.28949e-11
-5.362876e-11
-5.517137e-11
-1.174118e-10
-1.018185e-10
-0.0001770482
-0.00106515
-0.001084139
-0.001474728
-0.001632376
-0.001580546
-0.001724889
-0.001442612
-0.001417124
-0.02529365
-0.001356393
-0.002853007
-0.002219477
-0.004244586
-0.002986028
-0.00421184
-0.003727691
-0.003604871
-0.003611843
0.000654643
-0.002679223
0.0007218425
-0.001640445
0.001554376
-0.0008219648
0.0001102184
-0.0007544581
-0.001365816
-0.000965242
0.001360033
-0.001866856
0.00014913
-0.002129147
-9.336316e-05
-0.0004984573
-0.001460028
-0.001515741
-0.004166625
-0.003024701
-0.0001252425
-0.001171777
0.0008671375
0.0004506794
0.001842255
0.001840988
0.0001688128
0.0007727074
-0.001621527
-0.002580269
0.0003136123
-0.0001230505
0.0004376319
0.0005313151
0.0007386293
0.0003716609
0.001564316
-0.0005871597
-0.0002404553
-0.001789888
-0.002219917
-0.0009133438
0.0009135562
-0.002625969
0.002360301
7.794161e-05
0.0003308745
-0.00185076
0.002738039
-0.002953485
-0.0006673898
0.002758372
0.005894806
0.007418763
0.006438144
0.001297442
0.009273493
-0.001768889
0.002635514
0.003631443
-0.002973677
-0.0006970239
-0.001950465
-0.01096008
-0.00287649
-0.008065941
0.01901367
-0.001794343
0.01332945
0.01610804
0.00188066
0.003930698
0.007337689
0.02039056
0.03897185
0.06231363
0.08942891
0.08315631
0.08828224
0.0794155
0.009196024
-0.009548595
-0.03203605
-0.03516262
-0.03793404
-0.07193039
-0.03191174
-0.06769222
-0.08218492
-0.008049761
6.833001e-09
-7.515497e-10
-1.043501e-09
-1.460119e-09
-3.310546e-09
-1.022833e-09
-1.14365e-09
-6.746075e-10
-2.918727e-09
-1.988424e-09
-4.087663e-11
-3.965053e-10
1.434131e-09
2.636781e-10
1.855578e-10
7.375869e-10
5.712851e-10
1.574207e-09
1.326187e-09
1.437276e-09
-6.652703e-10
-2.330083e-10
-1.616127e-09
-7.484136e-10
-8.110684e-10
-3.449108e-10
-3.408029e-11
-1.367426e-10
-3.313205e-10
-3.67032e-10
-1.988322e-09
-3.188704e-10
-3.4777e-10
-3.654906e-11
-2.993943e-10
2.80633e-10
8.802379e-11
5.174498e-10
3.042067e-10
4.967125e-10
-8.475683e-10
-6.80267e-10
-5.784571e-10
-2.402019e-10
-1.069721e-10
3.198046e-10
5.787888e-10
6.155379e-10
7.114288e-10
6.813669e-10
-3.593821e-10
-9.348045e-10
-3.902284e-10
-2.067701e-10
-2.137346e-10
1.410981e-10
1.487376e-10
3.409798e-10
3.287859e-10
4.048767e-10
-8.182631e-13
-3.501194e-10
-3.707999e-10
-1.968471e-10
-2.006441e-10
-3.469971e-11
5.350368e-11
1.144548e-10
1.388744e-10
1.209456e-10
-2.635308e-10
-3.768093e-10
-4.04086e-10
-2.735752e-10
-3.530897e-10
-1.881904e-10
-1.866144e-10
-9.428094e-11
-5.698237e-11
-6.278326e-11
-0.0006370621
-0.0002331084
0.0006047615
0.0004402981
0.000688629
0.0006193741
0.0007430611
0.0009747966
0.000521193
-0.02253549
-0.0001314795
-0.0003002488
0.001606148
-0.0001328342
0.0002012942
0.0002580805
-0.0001012161
0.001758939
-5.214082e-06
0.003493471
-0.002647456
0.000305419
-0.001059697
0.0009022205
-0.0004960427
0.001570477
0.0008068694
0.004124334
0.002852226
-0.001881691
-0.0002514076
-0.00121855
-0.001112292
-0.0002128412
-0.001649115
0.001872406
-5.647341e-05
0.003874627
0.0011842
0.0001538883
-0.002069329
-0.001120547
-0.001830175
-0.001113453
-0.002394517
0.001885374
-0.003433741
0.002715528
0.001497336
4.304662e-05
-0.002921951
-0.0006111011
-0.001585045
-0.001236045
-0.001635602
-0.0005582442
-0.001215031
-5.228274e-05
0.0003452681
-0.003584942
-0.00264148
-0.0009984545
0.001433633
-0.002429609
-0.001538638
0.0002911116
0.001199491
-0.002489261
-2.347297e-05
-0.002847953
-0.002580051
-0.00447863
-0.00776387
-0.005131433
-0.004614862
-0.005192439
0.0007917865
-0.002814858
-0.004541443
0.001004298
0.003884785
0.006342293
0.009105558
0.009897915
0.0004953447
-0.01016785
-0.003053858
-0.01292152
-0.02361954
-0.001054021
0.004528624
-0.008668034
-0.01931581
-0.03605986
-0.06498867
-0.08058708
-0.09567313
-0.08850315
-0.09282304
0.01079472
-0.02441701
0.03636005
0.02879671
0.04491927
0.06650136
0.03400639
0.1078698
0.06864496
0.05558869
7.471609e-09
8.595615e-10
-4.073385e-10
2.682919e-09
1.703882e-09
1.570873e-09
1.079262e-09
1.696336e-09
2.038952e-09
2.841878e-09
2.161456e-09
-3.229254e-10
3.380664e-10
-9.003578e-10
-1.638437e-10
-7.219125e-10
-4.618358e-10
-9.847724e-10
-1.26169e-09
-1.716454e-09
1.059305e-09
1.09044e-09
1.047952e-09
8.657936e-10
5.554371e-10
3.904602e-10
3.416208e-12
5.994092e-10
3.373735e-10
7.028396e-10
2.795747e-09
5.532282e-10
6.640232e-10
1.582543e-10
2.8233e-10
-1.714388e-10
-2.467364e-11
-3.228979e-10
-2.810838e-10
-5.297323e-10
-1.525902e-10
9.200904e-10
2.17486e-10
3.300464e-10
-1.117529e-10
-2.487686e-10
-6.468159e-10
-4.702346e-10
-6.922053e-10
-6.148654e-10
9.07374e-10
2.766886e-10
3.077271e-10
1.244305e-10
9.461088e-11
-1.439676e-10
-1.704171e-10
-3.511938e-10
-3.148469e-10
-4.549381e-10
-1.950565e-10
3.023657e-10
-1.213947e-10
1.50384e-10
-6.168376e-11
7.533827e-11
-1.571064e-10
-4.536503e-11
-1.694457e-10
-1.240577e-10
1.868278e-10
1.519114e-10
1.041113e-11
5.821042e-11
2.596429e-11
-5.028073e-12
-1.720773e-11
-5.342822e-11
-1.209126e-11
-4.106144e-11
-0.0007074393
-0.01174747
-0.007607434
-0.006801872
-0.00597916
-0.006943054
-0.005648146
-0.006681918
-0.004228141
-0.02335067
0.001445751
-0.003516798
-0.002755932
-0.004252135
-0.003643377
-0.004717047
-0.003795106
-0.004137451
-0.003088882
-0.003998243
-0.006444361
-0.0007625593
-0.001394392
0.0002565699
-0.00140033
0.0004296753
-0.001171995
0.0002662755
-0.0006224006
-0.001427548
0.001112162
-0.002334748
-0.001795531
-0.001991164
-0.003109612
-0.0003818357
-0.003052214
-0.001052156
-0.00270493
0.004508523
-0.00211613
0.0003195587
-0.001935597
-0.0001482827
-0.002635037
0.002456486
-0.0005385622
0.003193498
0.0008389221
0.003653816
-0.005477035
-0.0003775013
-0.002177079
-0.002206923
-0.003126487
-0.002220665
-0.003472676
0.000160783
-0.0006403075
0.003275263
-0.002633521
0.002852948
-0.0004210583
0.0002498213
-0.0013248
-0.001233174
0.001140783
0.004636094
0.01069993
-0.004540681
-0.007410092
-0.01181241
-0.02185542
-0.02431901
-0.02335176
-0.01572335
-0.01540386
-0.01584794
-0.003727662
0.003437229
0.0004707276
0.004933126
-0.008875628
-0.01022099
-0.009278943
0.001736375
-0.00220712
-0.005032723
-0.0009298113
-0.009650733
-0.01829204
-0.02369142
-0.07596664
-0.1149845
-0.1299118
-0.1447317
-0.1484404
-0.1671484
-0.2014172
0.007217095
-0.0003777989
0.04479358
0.09980418
0.1587453
0.1909996
0.2514132
0.2525987
0.2364715
0.3107771
-6.18138e-11
1.348914e-09
-4.173193e-09
-2.379242e-09
-4.871497e-09
-3.903521e-09
-4.091114e-09
-5.254809e-09
-5.994938e-09
-4.994502e-09
-2.799199e-09
-3.372265e-09
-1.473917e-09
4.959603e-10
2.567578e-10
2.754572e-10
-4.825502e-10
1.202287e-09
1.51833e-09
1.775746e-09
-2.351969e-09
-1.557751e-11
2.779043e-09
1.420341e-11
1.88904e-10
-9.598201e-10
-8.870366e-10
-1.058094e-09
-9.15601e-10
-1.227791e-09
-5.453756e-10
-1.051512e-09
-4.899553e-11
3.150375e-10
-5.301995e-11
-5.494944e-11
-3.04985e-10
9.444662e-11
8.216457e-12
1.443675e-10
-1.927043e-09
-4.796118e-11
4.628554e-10
3.460455e-13
-1.110486e-11
-3.219423e-10
-3.182461e-10
-4.710696e-10
-3.741826e-10
-6.108784e-10
-1.345836e-09
2.739297e-11
-4.650784e-10
1.04831e-10
-9.977557e-11
4.518634e-11
-7.727211e-11
8.980135e-11
2.774607e-11
1.311624e-10
-1.301042e-09
8.269578e-10
-5.027638e-10
3.161014e-10
-1.340794e-10
2.373073e-11
-3.463383e-11
-9.394311e-11
-1.011962e-11
-1.278965e-10
1.40047e-10
6.434645e-10
-5.528524e-10
1.943444e-10
-3.183086e-10
-4.655184e-12
-1.933918e-10
2.89866e-11
-2.173623e-11
9.511346e-11
-0.004933358
0.008961564
0.01382241
0.01492008
0.0144214
0.01505305
0.01414492
0.01618238
0.01447382
-0.0133399
0.004964732
0.003964999
0.008204665
0.005815419
0.006648859
0.006482241
0.005691563
0.007159907
0.003577265
0.01159354
-0.01432602
0.004193808
0.001272077
0.005443477
0.004228339
0.005296999
0.005992692
0.006167629
0.007311266
-0.01010163
-0.001713706
-0.004244947
-0.001022552
-0.002337132
-0.001700626
-0.001583779
-0.002197004
-0.001677525
-0.002908894
-0.001541375
-0.00264171
-0.002185354
-0.001641743
-0.001112238
-0.0008934059
-0.00096289
-0.001260784
-0.003163724
-0.002766242
-0.0008349656
-0.002277741
-0.005057773
-0.004181996
-0.003649841
-0.005061524
-0.005234048
-0.006961517
-0.007050509
-0.009302426
-0.01786869
0.002353274
-0.003160215
0.003137815
-0.001196753
-0.00814328
-0.006262147
-0.008309096
-0.01194286
-0.007848106
-0.0135007
-0.01006056
-0.02575858
-0.03577542
-0.04102822
-0.04991985
-0.04786749
-0.04531646
-0.05553784
-0.04164542
0.0009035671
0.01301177
-0.0006190599
-0.01086639
-0.007791999
-0.03000245
-0.01190701
-0.02103295
-0.05751765
-0.01476897
-5.00236e-05
-0.007656092
-0.0483043
-0.139793
-0.1399975
-0.1476713
-0.1459171
-0.1399744
-0.1572431
-0.11263
-0.001676908
0.001851655
0.1394844
0.2175723
0.2511186
0.2523602
0.2298224
0.265575
0.2498118
0.2325487
6.65657e-09
1.231887e-09
1.973728e-09
8.623637e-09
6.539085e-09
7.172598e-09
3.177762e-09
6.14024e-09
7.42102e-09
1.15347e-08
-3.73678e-09
-3.32163e-09
3.67973e-10
-5.507395e-09
-4.189796e-09
-7.600941e-09
-6.585408e-09
-7.914056e-09
-7.185807e-09
-9.799676e-09
5.663191e-09
3.277643e-09
4.10708e-09
1.427107e-09
1.130717e-09
-2.658689e-10
-1.315494e-09
4.324562e-10
5.797148e-11
-5.832884e-11
2.248924e-10
-4.051937e-10
6.796814e-10
-7.260776e-10
-2.685603e-10
-1.22769e-09
-7.762958e-10
-1.401901e-09
-1.156141e-09
-1.604559e-09
-5.179778e-10
1.292508e-09
1.379653e-09
3.859421e-10
1.703946e-10
-1.656522e-10
-5.150953e-10
-3.188144e-10
-4.792241e-10
-5.689357e-10
-7.79835e-10
2.867994e-10
9.19588e-11
9.893316e-11
-9.292381e-11
-2.090426e-10
-1.607346e-10
-3.347112e-10
-2.135105e-10
-3.631041e-10
5.230909e-10
1.499354e-09
-1.26634e-10
4.539235e-10
-2.001045e-10
1.504981e-11
-2.951722e-10
-1.588141e-10
-3.235068e-10
-2.786255e-10
-5.426957e-10
1.295395e-09
-6.351502e-10
2.516965e-10
-3.514074e-10
-7.625564e-11
-1.830284e-10
-1.323095e-10
-6.719264e-11
-7.97602e-11
-0.01123682
-0.0001123289
-0.003271763
0.003951855
0.005410199
-0.001025775
0.002687709
-0.002108465
-0.002713462
-0.004057288
0.003942819
-0.005211734
-0.003294869
-0.004825371
-0.002952076
-0.002302633
-0.003660128
-0.002560122
-0.004172683
-0.01129358
-0.01299295
0.004414642
0.00110682
0.002158295
0.00169051
0.003396737
0.001969276
0.00636413
0.00424032
-0.0001287013
0.0004225152
-0.003774261
-0.001452312
-0.004607588
-0.004716793
-0.00312891
-0.004672529
-0.001455413
-0.003749941
0.002990896
0.005777582
-0.003334529
-0.0006373867
-0.003545757
-0.003180918
-0.001924359
-0.003188298
0.00141958
-0.001731997
-0.007851536
0.004302017
-0.009134603
-0.005557291
-0.008403056
-0.006313039
-0.006345025
-0.007157245
-0.004002572
-0.009368932
0.02236194
0.008959207
-0.004387659
-0.0002526545
-0.00220718
-0.0004613236
-0.001331388
-0.001993151
-4.063642e-05
-0.005967563
0.006018013
-0.005676763
-0.02675185
-0.03321045
-0.03743278
-0.03681867
-0.0368461
-0.03476571
-0.03341479
-0.04038259
0.01985978
0.003234123
0.006576934
-0.01114702
0.00442394
0.008794773
0.02224079
0.02489833
0.01948021
0.01934267
0.05333615
-0.01994371
-0.05325195
-0.0682548
-0.08291343
-0.09142682
-0.08547945
-0.06900802
-0.1173166
-0.0968123
-0.000759387
0.01723215
0.117351
0.1397942
0.1473884
0.1437833
0.2804906
0.2397428
0.1592564
0.3479237
-1.43778e-09
5.841782e-09
-6.005484e-09
-5.049579e-09
-1.097486e-08
-9.969338e-09
-8.665991e-09
-1.048907e-08
-1.125279e-08
-1.342444e-08
-9.095921e-09
-8.254835e-09
9.986419e-10
1.841333e-09
3.028433e-09
4.716406e-10
-1.607386e-09
4.245033e-09
5.329461e-09
4.239501e-09
-5.569279e-09
-2.219327e-09
1.168372e-09
-3.680999e-12
-9.220124e-10
-1.840787e-09
-1.531489e-09
-1.209969e-09
-2.004741e-09
-1.958717e-09
-1.216831e-08
-3.708954e-09
1.39449e-09
2.419503e-10
1.171248e-09
9.786049e-10
1.439452e-09
1.123309e-09
1.240865e-09
1.088581e-09
-9.967695e-09
-3.711852e-09
-4.767024e-11
9.536332e-11
-1.952524e-12
2.239528e-10
-1.922306e-10
9.311809e-11
-3.076828e-10
-1.803713e-10
-1.273708e-08
-4.410073e-10
-1.16886e-10
2.315939e-10
4.352323e-10
2.904938e-10
4.579711e-10
3.161057e-10
4.036031e-10
3.562215e-10
-1.129926e-08
4.002221e-09
-2.414443e-09
8.087159e-10
-3.395034e-10
2.71613e-10
-5.705858e-11
7.045446e-11
-4.942196e-11
-4.32387e-11
-1.062093e-08
3.213935e-09
-1.623197e-09
5.030971e-10
-2.138962e-10
1.6832e-10
2.293659e-11
1.686132e-10
1.032825e-10
1.810965e-10
-0.01805301
-0.01916254
-0.01894207
-0.01892806
-0.01109024
-0.01193942
-0.01147971
-0.01124071
-0.01459548
-0.0104266
0.0206267
0.02155282
0.02959166
0.02894046
0.03006719
0.02946522
0.02903079
0.02953805
0.03032539
-0.006065108
0.003921824
0.00167605
0.002895035
0.002109598
0.002184836
0.001889746
0.001691247
0.001081925
0.001604453
0.01712898
-0.003219115
0.001600692
-0.001267569
-0.0008459691
-0.001130473
-0.001179903
-0.001825877
-0.003020671
-0.002144313
0.01765659
0.005054423
-0.0004208212
2.546178e-05
0.0003534474
-0.0008863888
-0.0001783551
-0.00104101
-0.00154002
-0.0008192192
0.02125203
0.002570055
-0.002521187
-0.001312097
-0.001411342
-0.00301597
-0.002305898
-0.002423459
-0.004078754
-0.002093751
0.0539453
0.003420309
0.002095168
-0.001397478
-0.0009028426
-0.003751934
-0.0001118546
0.0002388938
-0.001239733
0.0009292961
0.006569875
-0.007978939
-0.00853052
-0.01381125
-0.01352909
-0.01761324
-0.01359163
-0.007513017
-0.01719428
-0.007365237
-0.002810153
-0.01395014
-0.02614725
-0.02969225
-0.02954157
-0.03247245
-0.02409472
-0.02062463
-0.04171243
-0.02522746
0.02947344
-0.006835743
-0.03678557
-0.04181962
-0.04920182
-0.04401581
-0.04494013
-0.04671539
-0.05228532
-0.04316293
-0.01440482
-0.05384282
0.0807923
0.1006628
0.1052893
0.0923531
0.1088563
0.02926367
0.1087876
0.1249108
0.0006193466
0.01161244
0.01739257
0.01148225
0.1118735
0.01363006
0.005787624
0.01101301
0.01804703
-9.095412e-11
7.996997e-09
5.558447e-09
7.616393e-09
1.161024e-08
1.461196e-08
1.487398e-08
2.088028e-08
2.530773e-08
3.076415e-08
-2.349993e-08
-3.523879e-09
2.74552e-09
4.047661e-09
8.237972e-09
9.319287e-09
1.11045e-08
9.191644e-09
1.093581e-08
1.038823e-08
-2.988076e-08
1.711626e-10
1.194124e-09
-2.664138e-09
-2.682324e-09
-2.241241e-09
-8.530083e-10
-3.757648e-09
-3.828276e-09
-4.648844e-09
-3.112214e-08
4.373248e-11
2.119116e-09
1.627415e-10
2.59566e-10
1.436905e-09
1.213354e-09
1.73298e-09
1.575095e-09
1.831495e-09
-5.227347e-08
1.408157e-10
1.779082e-09
-6.716995e-10
-2.545776e-10
-4.591811e-10
-9.835451e-11
-6.293357e-10
-4.676885e-10
-7.748834e-10
-3.645172e-08
1.094116e-09
2.820353e-10
-1.267638e-10
-1.365288e-10
1.507898e-10
6.33185e-12
2.049226e-10
1.150288e-10
2.133785e-10
-6.163549e-08
3.337041e-09
-3.976242e-10
4.087021e-10
-3.804238e-10
-6.924887e-11
-1.491285e-10
-2.090875e-10
-1.854678e-10
-2.614866e-10
-4.282616e-08
2.468327e-09
-8.80848e-10
1.427568e-10
-6.062308e-10
-1.841851e-10
-3.252422e-10
-1.603677e-10
-1.152018e-10
-6.672593e-11
-0.02051664
0.0080507
-0.005691993
0.03330018
0.009298164
1.00014e-08
0.003856784
2.375057e-09
0.00717518
-2.590776e-09
2.549946e-09
0.01300534
-0.009359726
-9.912256e-09
2.033557e-08
-0.0002977124
-2.984194e-09
8.48933e-10
-0.008569056
-0.01486843
-1.15142e-08
9.916543e-09
0.004280934
1.517214e-09
6.979974e-09
-0.01957766
-0.01633243
-1.614996e-08
2.537315e-08
0.003920731
-5.995923e-09
6.694381e-09
-0.02018677
-0.01761898
-2.460845e-08
4.437148e-08
0.00796786
-6.017799e-09
1.050455e-08
-0.01134076
-0.0229954
-3.495546e-08
5.988889e-08
0.001730266
-8.924268e-09
1.545678e-08
-0.01023847
-0.009785433
-4.438866e-08
8.790445e-08
0.01292962
-8.095822e-09
1.690758e-08
-0.02401488
-0.008382048
-5.862642e-08
1.090716e-07
0.003160549
-1.020173e-08
9.586446e-09
-0.02256647
-0.00772219
-7.617487e-08
1.250174e-07
-0.000129896
-9.270616e-09
1.608697e-08
-0.005977562
-0.01501342
-9.310636e-08
1.43086e-07
6.494234e-09
1.560867e-09
-9.322812e-09
-5.439957e-09
-1.615932e-08
-4.45758e-09
6.396302e-09
-1.968055e-08
1.253261e-08
3.407174e-10
-1.890783e-08
-3.482822e-09
3.159881e-09
-3.074884e-08
2.302312e-08
-4.007688e-09
-2.423622e-08
-6.338539e-09
1.878233e-08
-4.141291e-08
4.235249e-08
-3.735883e-08
-3.343621e-08
-1.811551e-09
2.032278e-08
-4.46063e-08
4.544032e-08
-3.199656e-08
-4.777551e-08
1.193068e-09
1.337583e-08
-2.762059e-08
5.534255e-08
-1.861179e-08
-5.198528e-08
6.273869e-09
1.552745e-08
4.018018e-10
5.385679e-08
1.391571e-08
-6.475798e-08
2.201568e-09
1.846888e-08
1.178723e-09
5.617664e-08
2.721819e-08
-6.811286e-08
1.025823e-10
-0.0007991503
-0.02631631
0.005156177
0.005205542
0.008505354
0.007257947
-0.001683297
-2.857449e-09
0.001134719
-9.892502e-09
-0.0002165063
-0.02734582
-0.003829792
0.001616485
0.01051782
0.001855105
-0.001493412
-7.25923e-09
-0.000897004
-7.134147e-09
7.3181e-05
-0.02739403
0.001141564
0.0007597105
0.02387664
-0.0003805443
-0.0002743778
-4.830388e-09
-0.004281934
-1.158061e-08
-2.965461e-09
-0.000793695
-0.02708106
-0.001229605
0.0006366183
0.02857746
0.0001899715
0.0009655659
-1.023818e-08
-0.001910299
-1.402339e-08
3.135333e-09
-0.0006953725
-0.01222664
0.0006219201
0.001961963
0.009498928
0.001196855
-0.001739758
-7.285699e-09
-1.013816e-09
-8.437574e-05
5.987293e-10
-4.888696e-09
-0.0009365274
-0.02632688
0.0004351271
-2.553076e-05
0.02036808
0.0002281313
-0.001554499
1.704098e-08
0.0007006816
-9.661896e-09
8.737531e-09
-0.004013003
-0.02173671
-0.005520909
-0.001425625
0.02100053
-0.002510084
0.003350752
1.835295e-08
4.810806e-09
0.001271731
1.429197e-08
9.091095e-09
-0.005710167
-0.01112938
-0.01386471
-0.001462136
0.01916788
-0.003473639
-0.001328799
5.964052e-09
6.951907e-09
-0.001080948
-8.947866e-10
1.780295e-10
-0.007023964
0.007592377
-0.02447407
0.02360281
-0.01746091
-0.006080806
-0.01893539
0.02831941
0.03050164
-0.03106824
-0.03180122
-0.03694251
0.03097193
0.03273517
-0.01242061
-0.03873698
-0.0292284
0.03681455
0.03229857
-0.01491941
-0.02994576
-0.02463421
0.03783517
0.03136895
0.03356359
-0.01915926
-0.02536798
-0.03413099
0.03299151
0.03290616
0.02998877
-0.02019035
-0.02773296
-0.03426976
0.02759862
0.03040411
0.03487927
-0.01905512
-0.02370512
-0.03132168
0.04056308
0.03316714
0.03347613
-0.01667374
-0.0348737
-0.03963479
0.03233463
0.03224293
-0.003842996
-0.03668809
-0.02808158
0.02879148
0.02093629
-0.02165993
0.01911494
0.00111542
0.007354951
-0.01135527
-0.001857666
-0.009812032
0.00930579
-0.01169903
-0.0005237235
-0.02160402
-0.004580736
-0.01618656
-0.009794733
0.005403395
-0.002005381
0.002593393
-0.004135712
0.001721869
-0.02609454
-0.01154158
-0.02343833
0.006778161
-0.03749072
0.005608859
-0.003004846
-0.003637181
0.005771766
0.01183052
0.01078121
0.03509604
0.004864015
0.01226447
-0.002516884
0.00852869
-0.02788816
0.005586339
0.001050714
0.01367202
0.000510168
-0.006424673
0.004967028
-0.001732533
0.001863507
-0.04929544
0.003059926
0.002762709
-0.01136025
0.006854494
-0.01656257
0.009078655
-0.0216386
-0.03450324
0.01554293
-0.006564664
-0.02693433
-0.004598588
-0.002591726
8.958445e-09
2.135002e-10
-0.007533076
-1.686658e-09
0.01876438
7.414899e-09
-1.207861e-08
-0.002636588
-0.004195413
1.6619e-09
-3.026062e-09
0.02391396
5.696136e-09
-2.095098e-08
-0.0007990817
-0.0003879093
2.091884e-09
-4.296674e-10
0.01474702
1.56555e-08
-3.005667e-08
-0.007288544
-0.007154482
6.837951e-09
-6.254866e-09
0.08254935
1.778779e-08
-3.970203e-08
-0.002109255
-0.005755127
6.816773e-09
-9.585125e-09
0.002878971
2.80605e-08
-5.266311e-08
-0.01193981
-0.001116089
3.273669e-09
-9.284232e-09
0.005233238
4.128983e-08
-7.411621e-08
-0.006869471
0.008857262
2.215908e-09
-1.315186e-08
0.01232965
6.043026e-08
-1.018996e-07
-0.005048845
-0.001177798
6.430163e-09
-1.708239e-08
0.02142624
7.819585e-08
-1.166575e-07
-0.003156445
-0.006444193
6.393099e-09
-2.107886e-08
-0.00251268
1.01838e-07
-1.335246e-07
-0.00258052
-0.003762539
1.393767e-08
-2.689695e-08
6.077377e-09
-2.124432e-09
1.065063e-08
-4.554181e-09
6.076193e-09
1.508057e-08
1.843301e-08
2.201394e-08
-1.667708e-09
1.850997e-08
1.434374e-08
3.084361e-08
2.141867e-08
-4.376677e-09
6.265183e-09
5.748044e-09
3.209917e-08
2.132386e-08
-5.44549e-09
1.691929e-08
-9.813382e-09
5.663881e-08
3.51087e-08
-2.606373e-09
2.412119e-08