/*--------------------------------*- C++ -*----------------------------------*\
  =========                 |
  \\      /  F ield         | OpenFOAM: The Open Source CFD Toolbox
   \\    /   O peration     | Website:  https://openfoam.org
    \\  /    A nd           | Version:  7
     \\/     M anipulation  |
\*---------------------------------------------------------------------------*/
FoamFile
{
    version     2.0;
    format      ascii;
    class       volScalarField;
    location    "0.1";
    object      Uz;
}
// * * * * * * * * * * * * * * * * * * * * * * * * * * * * * * * * * * * * * //

dimensions      [0 1 -1 0 0 0 0];

internalField   nonuniform List<scalar> 
109978
(
-0.0005352111
-0.003287931
-0.002539516
-0.001874362
-0.001929375
-0.001756266
0.004092971
-0.005096902
-0.005367905
-0.003339673
-0.003703381
-0.003394472
0.002445259
-0.004665611
-0.005546944
-0.00322411
-0.003542667
-0.003289871
0.002649948
-0.004408301
-0.00633817
-0.003483207
-0.004007472
-0.003667633
0.002407042
-0.004259943
-0.006367506
-0.003721416
-0.004834177
-0.003975245
0.003446269
-0.003927969
-0.006253738
-0.003819492
-0.004941623
-0.004145505
0.003341082
-0.003469573
-0.006332426
-0.003952462
-0.00501714
-0.004315894
0.002635508
-0.003268991
-0.00654639
-0.004092457
-0.005101191
-0.004477479
0.002285856
-0.003116372
-0.006739013
-0.004229887
-0.005205098
-0.004636472
0.002040211
-0.002713466
-0.006884467
-0.004401047
-0.005326266
-0.004793133
0.001582257
-0.001668286
-0.006937523
-0.004571468
-0.005460489
-0.004945591
0.001520243
-0.001471182
-0.007001976
-0.004731256
-0.00562404
-0.005111415
0.001544065
-0.00159687
-0.007116314
-0.00490935
-0.005788111
-0.005272207
0.001576308
-0.001760531
-0.007273066
-0.005073814
-0.005944111
-0.005424285
0.001578855
-0.001925262
-0.007429675
-0.005227774
-0.006086035
-0.005567402
0.001505093
-0.002086159
-0.00757836
-0.00536991
-0.006219898
-0.005700533
0.001367354
-0.002255357
-0.007717403
-0.005500761
-0.006342318
-0.005824552
0.001226328
-0.002412697
-0.007845307
-0.005619274
-0.00645505
-0.005938842
0.001099707
-0.002562164
-0.007966558
-0.005725289
-0.006557704
-0.00604179
0.0009980215
-0.002720585
-0.0080854
-0.00582052
-0.006652077
-0.006135374
0.0008675986
-0.002862908
-0.008202833
-0.005906575
-0.006737547
-0.006218003
0.0006975371
-0.0030378
-0.008306179
-0.005981255
-0.006816174
-0.006291937
0.002590221
-0.003330086
-0.008391208
-0.006048024
-0.006890392
-0.006359389
0.01133192
0.00837569
0.01239619
0.01144871
0.0098836
0.01078806
-0.04340703
-0.01913449
0.02611662
-0.005961671
0.005216094
0.000786094
-0.08982927
-0.03861091
0.03082491
-0.01487732
0.004607768
-0.003386451
-0.0930791
-0.04103006
0.01896632
-0.01361031
0.001667841
-0.0008961675
-0.08309495
-0.0369143
0.0156673
-0.01431797
-0.001477252
-0.0028271
-0.07292224
-0.03388516
0.01637601
-0.01367729
-0.0001325069
-0.001722686
-0.06534094
-0.03095817
0.02060461
-0.01324761
0.0009011574
-0.002075232
-0.05943465
-0.02562609
0.02005606
-0.01193346
0.00184551
-0.001504535
-0.0510547
-0.02334105
0.01978117
-0.01055394
0.003173808
-0.001372575
-0.04260582
-0.02229121
0.01748356
-0.009766758
0.003667499
-0.001140904
-0.03953036
-0.02397643
0.01744468
-0.008469194
0.004180736
-0.001258455
-0.03667757
-0.02329456
0.01756374
-0.007845479
0.004352211
-0.00135509
-0.03483211
-0.02270874
0.01921883
-0.007395498
0.004600505
-0.00152636
-0.03398524
-0.02301296
0.01926877
-0.007810274
0.004595349
-0.001667439
-0.0325893
-0.02541332
0.0200275
-0.007846455
0.004157193
-0.001777577
-0.03136507
-0.02671114
0.01980536
-0.008161843
0.004265096
-0.001788397
-0.03036944
-0.02768367
0.0199945
-0.008279634
0.004249536
-0.001818362
-0.0294921
-0.02843099
0.01985221
-0.008518169
0.004397398
-0.001871783
-0.02870392
-0.02929692
0.02023209
-0.008789497
0.004605694
-0.001936544
-0.0279222
-0.02958134
0.02060903
-0.009090533
0.004765456
-0.002010367
-0.02708981
-0.02987055
0.0210521
-0.009294684
0.004967703
-0.002115451
-0.02652341
-0.03099468
0.02152195
-0.009445251
0.005211846
-0.002216235
-0.02617396
-0.03244353
0.0221014
-0.009551359
0.005544598
-0.002260309
-0.03359593
-0.03396723
0.02278925
-0.009668493
0.005985231
-0.002280049
0.003147374
0.001604556
0.001060253
0.0003936624
0.001188479
0.001873865
-0.002273554
-0.02376823
0.007249422
-0.003420283
0.003495723
0.0006634774
-0.04596887
-0.01096462
0.001182694
-0.01161581
-0.00390748
-0.002921579
-0.0121309
-0.01758781
-0.001814906
-0.01201854
-0.00232793
-0.001759423
0.002280504
-0.01527213
-0.002747941
-0.009840001
-0.002253081
-0.002873861
0.0008354224
-0.01587163
-0.001456998
-0.009683365
-0.0006541196
-0.003055574
-0.0003426381
-0.01517598
0.000948118
-0.00832157
-0.0003875357
-0.002304766
-0.003046218
-0.01531937
0.002828657
-0.00751816
-0.0003180998
-0.00197897
-0.004856612
-0.01369013
0.003301411
-0.006975044
-0.0004597256
-0.001230163
-0.005001998
-0.01270396
0.002471606
-0.00677663
-0.0008457363
-0.0005798744
-0.005115563
-0.013424
0.002012655
-0.006037237
-0.0001390232
0.0004350581
-0.00269423
-0.01364993
0.001433824
-0.005366629
0.0004211049
0.0002961035
0.0007250555
-0.01457555
0.001528551
-0.004934231
0.0006296936
1.323538e-05
0.001951998
-0.01487201
0.002759271
-0.004700455
0.0007941085
0.0001212435
0.004508103
-0.01463763
0.002911537
-0.004281393
0.001201209
0.0002260247
0.005709634
-0.01539018
0.003730942
-0.004352202
0.0009810568
0.0005001639
0.006359958
-0.01590411
0.004145106
-0.004236455
0.001050966
0.000712282
0.007173451
-0.01638211
0.004983848
-0.00444993
0.0009311809
0.0007590528
0.007588162
-0.01651419
0.005642886
-0.004561742
0.000809011
0.0009166413
0.00792085
-0.01717257
0.006331202
-0.00445947
0.000755821
0.0008859604
0.009471699
-0.01858933
0.006778101
-0.004256989
0.0008063875
0.0007938619
0.009961761
-0.01914308
0.007412138
-0.00397182
0.001042319
0.0007655978
0.009592691
-0.0194273
0.008025203
-0.003780998
0.001259223
0.0007868703
0.009065533
-0.01985407
0.00869676
-0.003700351
0.001386337
0.0008169598
0.0009154976
0.0002900658
-0.004473012
0.0005197876
0.000208175
0.0004867978
0.004879324
-0.01578832
0.003061407
-0.001610849
0.0008821517
0.002821838
-0.002892427
-0.01449756
0.005574146
-0.006040336
0.003597523
-0.0002863874
0.002288985
-0.007000569
-0.0007644786
-0.004756878
-0.002261693
0.0004604163
0.002367829
-0.01514442
0.003027412
-0.002166765
0.0009053477
0.0005920758
0.001724379
-0.01422623
0.006113216
-0.0006864516
0.0003653134
0.001416459
0.0004745124
-0.0110222
0.006610695
-0.001015202
0.001397856
0.001201827
-0.00182046
-0.0110835
0.005592817
-0.0009110936
0.001346089
0.0007906661
-0.002012657
-0.01091368
0.007017636
-0.0008917655
0.0009068973
0.0008100386
-0.001145013
-0.008566141
0.00623976
-0.001430249
0.0003073364
0.0005257619
-0.0003538146
-0.006569359
0.005195518
-0.0016474
-0.0001050707
0.0007927753
0.001374401
-0.009238318
0.003503623
-0.002153133
0.0004138735
0.001062717
0.003969866
-0.01050768
0.002906937
-0.002524845
0.0008896882
0.0007668741
0.006482151
-0.01016106
0.002632775
-0.002612923
0.0005264116
0.0003223392
0.009059666
-0.01380248
0.003262214
-0.002721628
0.0007959
0.0006655072
0.00991679
-0.01375339
0.003495697
-0.002143108
0.0007430655
0.0005492746
0.01010179
-0.0149818
0.003730905
-0.001854215
0.0008029656
0.0007549901
0.0103229
-0.01441429
0.00370073
-0.001502416
0.0004418963
0.0006915195
0.01030147
-0.01538624
0.004066756
-0.001159428
0.0004473387
0.0007663505
0.01078588
-0.01657056
0.004488599
-0.0008331537
0.0006821438
0.0008580098
0.01186892
-0.01751755
0.004863457
-0.0004554136
0.001149712
0.0009640621
0.01247315
-0.01842632
0.004923903
-0.0003212888
0.001596153
0.001047053
0.01216613
-0.02001758
0.00526266
5.697515e-05
0.002003537
0.001169596
0.01179996
-0.02121792
0.005577994
0.000391645
0.002283595
0.001204104
-0.007205483
0.001765503
0.002481168
-0.0005335072
-0.000637453
8.501215e-05
0.001825359
-0.003999375
-0.0001405965
-0.0009350856
-0.0005284203
0.000116335
-0.02757684
-0.004380895
-0.0009789971
-0.0007802712
0.0008357324
-0.0002795249
-0.00164064
0.003591647
-0.000870454
-0.002204403
-0.001283655
-0.002628928
0.00209612
0.003520682
-0.001062588
-0.0009050445
-0.0009204841
-0.0003976655
-0.002960037
0.000542853
-0.0009075008
-0.001008947
-0.0007616554
-0.0003669354
-0.003972152
-0.001513607
-0.0002697722
-0.000224881
-0.0007632388
-3.206719e-05
-0.001050595
-0.00116667
0.0005438828
-0.0005948407
-0.0003693149
-0.0001510605
-0.001635827
-0.0009746033
0.001002324
-0.0009104492
-0.0004780097
-0.0001338101
-0.001594137
-0.0004133966
0.0009678433
-0.0005907979
-0.0005348339
-0.0003926585
-0.0013467
-0.0003665159
0.0006448242
-0.0004506861
-0.000569938
-0.0008426229
-0.0001039122
-0.001112359
1.013586e-05
-0.0002480805
-0.0004880472
-0.0005658336
0.001377183
-0.001500568
-0.0008037072
-0.0001881513
-0.0008679812
-0.0006065932
0.006836264
-0.001008712
-0.0006359439
-0.0008224404
-0.001342731
-0.0005822162
0.009579158
0.0009962116
-0.0004431631
-0.0004025368
-0.001819754
-0.0006574384
0.009445645
-0.0006778761
-0.0004269615
-0.0008922292
-0.00173755
-0.00140622
0.008660768
-0.00019362
-0.0008953955
-0.0007743024
-0.00184081
-0.0009137314
0.00871686
-0.001642561
-0.0002690345
-0.0005623719
-0.001616769
-0.00148676
0.008418277
-0.001389823
-9.591575e-05
-0.0004684826
-0.001331548
-0.001276892
0.007640446
-0.001422634
5.244205e-05
-0.0001514281
-0.001071673
-0.001332289
0.005854486
-0.0008188809
5.669935e-06
-1.29673e-05
-0.0008763844
-0.001155964
0.006080514
-0.001153549
0.0006441156
0.0001901617
-0.0006330962
-0.0009630772
0.006184237
-0.0007950862
0.000687033
0.000481877
-0.0003968339
-0.0007223663
0.006656148
-0.001673908
0.000884767
0.0008273009
-0.0001595417
-0.0004963491
0.001822898
-5.613152e-05
0.001568186
9.160496e-05
0.00065438
0.0003953826
4.437154e-05
0.005006363
0.0001587482
0.0009785765
0.0004850953
-7.587481e-05
0.004966243
0.004243821
0.001178532
0.0008301888
-0.0008079394
0.0002859708
-0.005333044
-0.00345134
0.0008898011
0.002199227
0.00126512
0.002697459
-0.004508414
-0.003622238
0.001128248
0.0009442181
0.0009252601
0.0004415864
0.0004532543
-0.0001289864
0.0009407533
0.001048418
0.0007564344
0.0004105164
0.003125223
0.001952953
0.0004995383
0.0003146601
0.0007910034
9.056195e-05
0.005685556
0.001387104
-0.0003058613
0.000654483
0.0003773572
0.000205546
0.006897106
0.001078388
-0.0007344628
0.0009909601
0.0004800412
0.0001892366
0.006105607
0.0006046812
-0.0007265973
0.0007010638
0.0005402208
0.0004351019
0.005083437
0.0006630058
-0.0004302124
0.000589091
0.0005841981
0.0008717416
0.004637444
0.001552064
0.0001254016
0.0003867138
0.0005045726
0.0006043482
0.00480118
0.001708863
0.0009993609
0.0003236632
0.0008881727
0.000630675
0.002235397
0.001270405
0.000894886
0.0008860472
0.001383325
0.0005941787
-0.005133453
-0.0008515777
0.0005282969
0.0004613767
0.001829837
0.0006740508
-0.00793999
0.000614241
0.0003922246
0.000915907
0.00174948
0.001387823
-0.009324607
-0.0001922662
0.001117077
0.0008531958
0.00185343
0.0009001507
-0.0106611
0.001354807
0.0001663805
0.0005481986
0.001605941
0.001435345
-0.01145632
0.0006532876
0.0001743826
0.0005017094
0.001338062
0.00122714
-0.01233063
0.0004205306
0.0004312119
0.0001793052
0.001080385
0.001279518
-0.01358849
0.001951699
-0.0004133545
-5.317241e-05
0.0008346557
0.001119185
-0.01446148
0.001083335
-0.0007116455
-0.0001729346
0.0006675956
0.0009116896
-0.01314962
0.0008152557
-0.000779305
-0.0004960075
0.0004343255
0.0007281621
-0.01159304
0.001649202
-0.0008224115
-0.0008273638
0.000199624
0.0003987526
0.0003690368
0.0002233084
-0.0002060989
0.0004568081
0.001061668
0.0001184448
-0.007845158
0.01574776
-0.002371217
0.001895218
-0.0004232252
-0.002501121
-0.007570092
0.01533258
-0.005264288
0.006178668
-0.003371739
0.0003999307
-0.003165486
0.007471868
0.0008033437
0.004719768
0.002294096
-0.000349849
-0.004799478
0.01560794
-0.002940942
0.002162897
-0.0008513956
-0.0005645539
-0.005092654
0.01370511
-0.00576524
0.0007475639
-0.0003149739
-0.001388841
-0.003677274
0.01055731
-0.006317779
0.001032693
-0.001381428
-0.001189774
-0.001119971
0.01069261
-0.005600982
0.0009138525
-0.001327812
-0.0007830108
0.0008931335
0.01055474
-0.006958329
0.0008930697
-0.000875547
-0.0007918156
0.001629379
0.007999927
-0.005994974
0.001435983
-0.0002793365
-0.000500404
0.001929654
0.005845753
-0.004928887
0.001633895
0.0001177701
-0.000769819
0.001544463
0.008428684
-0.003585051
0.002169696
-0.0003899576
-0.001044056
-0.003450367
0.009822117
-0.002998058
0.002505671
-0.000875516
-0.0007470528
-0.007705005
0.009947841
-0.00261319
0.002567622
-0.0005265621
-0.0003175467
-0.008373828
0.01367088
-0.003220051
0.002697499
-0.000796804
-0.0006379017
-0.008778153
0.01388657
-0.003431122
0.002127421
-0.0007651271
-0.0005353217
-0.00848791
0.01525303
-0.003714623
0.001832362
-0.0008750418
-0.0007705747
-0.008644504
0.01491544
-0.003646385
0.001486755
-0.0004939438
-0.0006964132
-0.008289154
0.01611394
-0.004064623
0.001184404
-0.0005202962
-0.0007791547
-0.007807981
0.01743143
-0.004601984
0.0007441573
-0.0008002783
-0.0008978207
-0.007716996
0.01681875
-0.004697245
0.0005883407
-0.001168905
-0.0009759568
-0.007507584
0.01804761
-0.004930372
0.0003232368
-0.001650531
-0.001048509
-0.009097308
0.01987759
-0.005248426
2.310326e-05
-0.001998352
-0.001170902
-0.01087938
0.02120043
-0.0056238
-0.0003493825
-0.0022102
-0.001066184
0.007566232
0.002274306
-0.0008605184
0.0005895355
-0.0007786529
-0.002108541
0.004487752
0.02348235
-0.007067632
0.003508086
-0.003549113
-0.000838732
0.03982452
0.01038678
-0.001624185
0.01152991
0.003747868
0.002769779
-0.02239506
0.01752139
0.001859547
0.0120811
0.002341809
0.001669252
-0.008033924
0.01514656
0.00276323
0.009875806
0.00228255
0.002786296
0.001222788
0.01600466
0.001387762
0.009683008
0.0006728154
0.003067437
0.003296627
0.01535378
-0.001030118
0.008295344
0.0003910824
0.002281413
0.003753643
0.01533838
-0.002893598
0.007517182
0.0003236851
0.001975168
0.002406944
0.01371024
-0.003383191
0.006974564
0.0004675336
0.001219119
0.00165997
0.01274453
-0.002591316
0.00676676
0.000849753
0.0005697975
0.0004194707
0.01345114
-0.002152971
0.006019886
0.0001421384
-0.0004382811
-0.00309494
0.01357189
-0.001579266
0.005347443
-0.000441221
-0.0003002487
-0.006346307
0.0145397
-0.001650351
0.004916068
-0.0006470301
-9.854102e-06
-0.008013042
0.01484589
-0.00282996
0.004675829
-0.0007922785
-0.0001051303
-0.007256936
0.01464662
-0.002918252
0.004263969
-0.001194904
-0.0002028282
-0.007175127
0.01538844
-0.003708959
0.004331374
-0.0009784091
-0.0004697902
-0.006966727
0.01591635
-0.004123505
0.004199995
-0.001045524
-0.0006563926
-0.007050939
0.01642228
-0.004917965
0.004419853
-0.0009303205
-0.0006866115
-0.007241179
0.01657368
-0.005633751
0.004511571
-0.0007995981
-0.0008321687
-0.007480351
0.01787251
-0.006241488
0.004449194
-0.0007053985
-0.0007755868
-0.007996186
0.01888145
-0.006842833
0.004202519
-0.00076741
-0.0006903399
-0.008779494
0.01923788
-0.007464145
0.003869937
-0.001007371
-0.0006583713
-0.0099176
0.01950328
-0.00810913
0.00368528
-0.00124079
-0.0006607803
-0.01087628
0.01989646
-0.008758785
0.003514765
-0.001438289
-0.0007826264
-0.004951005
-0.0009993139
0.0004048685
-0.003027384
-0.003211427
-0.003580697
0.02042316
0.01946025
-0.0277524
0.005738763
-0.005369321
-0.0007709948
0.0849152
0.0389214
-0.03072324
0.01498308
-0.004520756
0.003436653
0.07090205
0.04117204
-0.01900886
0.01357551
-0.001661351
0.0009501655
0.0433515
0.03702251
-0.01571542
0.01433285
0.001454107
0.002853487
0.03036791
0.03388511
-0.01636995
0.01368032
0.0001516195
0.001750579
0.0215195
0.03090155
-0.02055119
0.01324432
-0.0008935162
0.002092178
0.01641845
0.02562956
-0.02004416
0.0119043
-0.001855846
0.001524385
0.01341773
0.0233217
-0.01975217
0.01052936
-0.003184854
0.001386548
0.008652359
0.02230301
-0.01747125
0.009737185
-0.003679724
0.001154316
0.007567912
0.02395314
-0.01742127
0.008439483
-0.004214981
0.001265462
0.00581463
0.02329583
-0.01753505
0.007832269
-0.00437165
0.001361575
0.00454205
0.02264827
-0.01913317
0.007349604
-0.004570151
0.00152556
0.003291921
0.02299006
-0.01914243
0.007776337
-0.004542831
0.001660689
0.002319085
0.02541161
-0.0199379
0.007800244
-0.004119283
0.001767905
0.001813214
0.02672275
-0.01972581
0.008142621
-0.004223086
0.001775582
0.001712804
0.02769095
-0.01994277
0.008266063
-0.004192592
0.001799169
0.001704711
0.02843661
-0.01988046
0.008505236
-0.004359146
0.001856382
0.001527448
0.02926002
-0.02029114
0.008784183
-0.004539182
0.001909808
0.001274689
0.0292222
-0.02053103
0.009103486
-0.004714401
0.001974924
0.001473381
0.02972706
-0.02099385
0.009300287
-0.004867173
0.002062174
0.001650871
0.03083307
-0.02149286
0.00940851
-0.005054916
0.002128002
0.001658939
0.03230186
-0.02204068
0.009448729
-0.005279706
0.002185502
0.03362395
0.03389915
-0.02282502
0.009420242
-0.005347118
0.002236028
-0.0262079
-0.0211273
-0.005022231
-0.01738522
-0.01551216
-0.0148531
0.003013012
-0.02518341
-0.03219255
-0.01298246
-0.02235578
-0.01757267
-0.01821504
0.02423084
-0.02816181
-0.02426707
-0.0009203444
-0.01844004
-0.009910864
-0.01389116
0.01720576
-0.02405162
-0.02965268
-0.0007018745
-0.02316418
-0.01227808
-0.01558586
0.01209399
-0.02144738
-0.03144375
-0.002533538
-0.02281646
-0.01245499
-0.01538552
0.00843612
-0.01876019
-0.03232452
-0.004664642
-0.02285338
-0.01467507
-0.01581385
0.004441236
-0.017861
-0.03199255
-0.005884141
-0.02251851
-0.01436782
-0.01556686
0.0007536122
-0.01746475
-0.0307731
-0.007760846
-0.02230429
-0.01451436
-0.01591012
-0.002826339
-0.01773331
-0.02900555
-0.009402536
-0.02198745
-0.01458161
-0.01601463
-0.003812956
-0.01817148
-0.02808315
-0.01094471
-0.0218679
-0.01490914
-0.0162527
-0.001609431
-0.01884601
-0.02787486
-0.01214339
-0.02201442
-0.01543967
-0.01659307
-0.002206502
-0.01775975
-0.02882185
-0.0131747
-0.02232221
-0.01605504
-0.01703272
-0.002952469
-0.01816249
-0.02910993
-0.01386618
-0.02252714
-0.01645914
-0.01742421
-0.003587712
-0.01835488
-0.02965333
-0.01424216
-0.02289124
-0.01688233
-0.01785127
-0.004256698
-0.01896491
-0.03011348
-0.0145382
-0.0232714
-0.01729868
-0.01827887
-0.004775123
-0.01965058
-0.03056139
-0.01484262
-0.02362626
-0.01773727
-0.0186971
-0.005289901
-0.02020558
-0.0310739
-0.01518369
-0.02400736
-0.0181416
-0.01908954
-0.005668785
-0.02091285
-0.03160632
-0.01550073
-0.02435459
-0.01852498
-0.01946262
-0.005866998
-0.02174235
-0.03211389
-0.01578976
-0.024696
-0.01888521
-0.01980924
-0.005816705
-0.02237154
-0.03269838
-0.01604671
-0.02502855
-0.01921253
-0.02014275
-0.005705369
-0.02283101
-0.03322084
-0.01626249
-0.02535674
-0.01950929
-0.02046665
-0.005424071
-0.0231847
-0.03371403
-0.01645341
-0.02565138
-0.01975835
-0.0207626
-0.005112327
-0.02357313
-0.03419639
-0.01660891
-0.02593033
-0.02001833
-0.02105942
-0.004904909
-0.002422219
-0.03466706
-0.01666791
-0.02603821
-0.02000732
-0.02125301
0.01843924
-0.01526799
0.0003957209
-0.004702458
0.03364649
0.03459506
-0.003019625
0.01140698
-0.02920939
0.008587141
0.03995435
0.01278845
-0.02411316
0.02621652
0.001895444
0.02661386
0.03637668
0.01397376
-0.01712816
0.03424623
0.002209998
0.03223035
0.03657407
0.01324188
-0.01206581
0.03307801
0.00310909
0.03246183
0.03576545
0.012852
-0.008426224
0.03090209
0.004136015
0.0328106
0.03462614
0.01359026
-0.004438924
0.03049076
0.00500338
0.03425666
0.03411813
0.01481639
-0.0007537007
0.03089233
-0.01027219
0.03361022
0.03340144
0.01596319
0.002831075
0.03137367
-0.01256036
0.03537171
0.03132734
0.01796807
0.003815305
0.03255777
-0.01822934
0.03661719
0.02885478
0.01844155
0.001594998
0.03488311
-0.01986893
0.03626959
0.02787092
0.01868158
0.002193954
0.03593314
-0.02229088
0.03627885
0.02713924
0.01914874
0.002934717
0.03698981
-0.02504968
0.03605079
0.02634666
0.01953664
0.003565684
0.03766448
-0.02552555
0.03451161
0.02588152
0.02010704
0.004243842
0.03854988
-0.02555583
0.03397631
0.02575224
0.02093697
0.004788909
0.03961777
-0.02587761
0.0342534
0.02566413
0.02174415
0.005300138
0.04026433
-0.02628565
0.03456702
0.02553607
0.02243808
0.005681802
0.04117364
-0.02645987
0.03464503
0.02554606
0.02302845
0.005875569
0.04230029
-0.02653338
0.03465844
0.02557857
0.02353533
0.005891602
0.04329151
-0.02694863
0.034662
0.02567971
0.02393673
0.005774198
0.04399514
-0.02760972
0.03439126
0.02590854
0.02424695
0.005442467
0.04456777
-0.027894
0.03398225
0.02623102
0.02456817
0.005124763
0.04499726
-0.02804336
0.0336044
0.02671091
0.00856844
0.004910799
0.04547493
-0.02818229
0.03341482
-0.008234195
0.009158871
-0.003413965
-0.01312848
-0.09402142
0.001363173
0.01925805
-0.004068919
0.01017154
-0.02138409
-0.03243032
-0.004620181
0.006322477
0.0003483863
-0.00224421
-0.0311551
0.00953997
-0.006370671
-0.00332536
-0.000507135
-0.01006832
-0.02576907
6.414535e-05
-0.0003239233
0.0003069431
0.05301912
-0.001520847
-0.01660268
-0.0001295207
0.01462454
0.01573594
-0.004604655
0.001960419
-0.007426312
-0.0003432681
0.00827761
0.01831778
0.03474809
0.002367659
-0.01892797
0.003849308
-0.008264771
0.009363466
0.09601577
-0.002633479
0.003798673
-0.009861801
0.003600378
0.01015546
-0.0006338716
0.00462356
-0.01853037
0.0404124
0.003401248
0.02698844
-0.02782249
0.005911221
0.02329583
-0.01510441
0.003036399
-0.004173682
-0.0003030018
0.03318834
-0.009198974
0.0113811
-0.002035906
0.002668462
0.0256763
-0.0110247
0.004997079
-0.003221626
0.0007040304
0.02987843
-0.01050968
0.00646401
-0.002477263
0.001168363
-0.01109247
-0.002655419
-0.01125431
0.02930196
-0.008562629
-0.03346539
-0.03452292
-0.02626086
-0.001895566
-0.02652084
-0.03974519
-0.01277036
-0.03435966
-0.002210732
-0.03228406
-0.03638568
-0.01398419
-0.03305868
-0.003108973
-0.0325163
-0.03658923
-0.01324638
-0.03089975
-0.004135767
-0.03281632
-0.03575988
-0.01285273
-0.03048214
-0.005003063
-0.034238
-0.03462117
-0.01358659
-0.03137153
0.01251088
-0.03534199
-0.03341268
-0.01596159
-0.03256893
0.01820986
-0.03659697
-0.03133304
-0.01797371
-0.03491602
0.0198349
-0.03625067
-0.02886444
-0.01845913
-0.03596474
0.02219171
-0.03625536
-0.02788711
-0.01869809
-0.03703728
0.02487881
-0.03603779
-0.0271495
-0.01915973
-0.03765608
0.0254368
-0.03450333
-0.02635197
-0.01954766
-0.03856985
0.02552397
-0.03396747
-0.02588436
-0.02011535
-0.03961644
0.02587857
-0.03424454
-0.02575405
-0.02094557
-0.04027193
0.02630228
-0.03455792
-0.02566175
-0.02175157
-0.0411691
0.02649063
-0.03464314
-0.02553891
-0.02244882
-0.04232079
0.02661549
-0.03466933
-0.02554702
-0.02304304
-0.0433195
0.0272556
-0.03466992
-0.02558541
-0.02355372
-0.04404491
0.02771462
-0.03436628
-0.02568046
-0.02394884
-0.04457433
0.02795905
-0.03393797
-0.02590951
-0.02425966
-0.04500771
0.02810338
-0.03356684
-0.02623472
-0.02458228
-0.04544417
0.02823354
-0.03336516
-0.02672054
-0.008580317
0.04328776
0.02821783
0.02741118
-0.005984559
0.02113921
-0.04057438
-0.00353995
-0.02716097
0.004101469
0.0002417301
0.02074382
-0.02414482
0.01433087
-0.003322103
0.001983839
-0.002670877
0.005088679
-0.03317041
0.009107959
-0.01135242
0.003221423
-0.0007037521
0.01752773
-0.02564634
0.01106163
-0.00497668
0.002489049
-0.001171022
0.01557752
-0.02986626
0.01053427
-0.006486812
0.00266324
0.01488058
0.01110896
-0.007090892
0.006353493
0.01791724
-0.0004130644
0.01513801
0.005593613
0.001882824
0.003170931
0.0131104
0.01122041
-0.001667529
0.005965463
0.01160071
0.01516162
0.004063505
0.008927699
0.01151217
0.01676432
0.009243017
0.01017283
0.007983757
0.0161481
0.01248972
0.01100469
0.007121313
0.01578038
0.0180225
0.01204677
0.008026981
0.01739755
0.02057385
0.01261477
0.006566684
0.01654645
0.01833239
0.01249305
0.00214838
0.01538253
0.01316999
0.011668
0.000288915
0.01397916
0.01011212
0.01143131
-0.0007218313
0.01336167
0.008209997
0.01146132
-0.001588348
0.01299852
0.006683971
0.0115125
-0.002099062
0.01255544
0.005808616
0.01111789
-0.002051854
0.01209744
0.005753225
0.01047277
-0.001779798
0.01165432
0.006421164
0.01033859
-0.00163505
0.01133857
0.007015554
0.008558977
-0.001404233
0.01115936
0.007477731
0.007271487
-0.001178721
0.01107421
0.007790888
0.006976539
-0.001033788
0.01095758
0.007945248
0.007023579
-0.0009509412
0.01074479
0.008121367
0.007158296
-0.0008566609
0.01059939
0.008503196
0.007330424
-0.0006764132
0.01058228
0.0091399
0.00743429
0.004727746
0.003984315
0.01564574
0.003015881
0.001321308
0.00498985
-0.01799898
-0.001142196
-0.003315677
-0.01059239
2.975253e-05
0.00375017
-0.003596347
-0.0098664
-0.0007121124
-0.02093274
-0.008426163
-0.007415874
-0.0309139
0.01026545
-0.03363006
-0.03412633
-0.01481727
0.0120595
-0.00887175
-0.005615506
0.007101086
0.0653788
-0.008132049
0.005244511
0.02386758
0.004255348
0.01330691
0.01109052
-0.0005408629
0.007023641
0.002001094
-0.007205182
0.004084003
0.0146261
0.008957789
-0.001167441
0.008311455
0.01315747
0.01204244
0.003310089
0.01029648
0.01289245
0.0144832
0.006388386
0.0106732
0.009400428
0.01540276
0.007966643
0.01305833
0.007866865
0.01549553
0.01597859
0.01274521
0.005516241
0.01762277
0.01577444
0.01306957
0.00460542
0.01586313
0.01569125
0.01099585
-0.008012832
0.01425417
0.01096244
0.009885351
-0.008515837
0.01304398
0.008921595
0.009722429
-0.0100157
0.0124368
0.007335849
0.009619147
-0.01140044
0.01196741
0.006291537
0.008495775
-0.01192367
0.01161585
0.005830376
0.007054762
-0.01202929
0.01131752
0.006242007
0.007185282
-0.0118391
0.01126702
0.00675232
0.007246001
-0.01181567
0.01105954
0.007335618
0.007259167
-0.01167327
0.01080154
0.007906653
0.007376758
-0.01142969
0.01061947
0.008420928
0.007486275
-0.01127865
0.01046922
0.008852089
0.007569183
-0.01123076
0.01034328
0.009205888
0.007725066
-0.01118236
0.01029223
0.009553688
0.007880109
-0.01100158
0.01032579
0.009939885
0.008044602
-0.01822101
0.01037507
-0.01073744
0.002184095
0.02170324
-0.002746613
0.0109523
0.009275892
0.0008623475
0.00489043
-0.005384527
0.01728824
0.008006927
-0.004904657
-0.008828372
-0.01528523
-0.0007799494
-0.008200769
0.002029653
-0.04422122
-0.04079231
-0.01307826
0.008762978
0.006005277
-0.0149243
-0.06616956
0.005631397
-0.005526689
-0.02412648
0.00155723
0.004753468
-0.01512022
8.453457e-05
-0.008213572
0.003669749
0.01913438
-0.0006588071
-0.002346675
-0.001009464
-0.01416057
0.0002213245
-0.01420431
0.001311909
0.01102471
-0.001327311
0.002576373
-0.001434674
-0.01473371
0.001508176
-0.009958787
0.002270366
0.01540338
-0.0002940114
-0.0002212352
-0.001193849
-0.01411234
0.000824134
-0.01333269
0.001490391
0.01094268
-0.001260515
0.002130146
-0.001759471
-0.01554314
0.0009632604
0.002654706
-0.001765117
-0.01525399
0.006853914
-0.006768758
-0.01825201
0.0005931508
-0.01114278
0.0005938312
-0.006949932
-0.002080535
-0.01513887
-0.005605626
-0.001856191
-0.003175073
0.00719682
-0.004099506
-0.01465416
-0.008944988
-0.01310603
-0.01120852
0.001686307
-0.005972412
0.001171035
-0.008318731
-0.01315187
-0.01203585
-0.01158753
-0.01515981
-0.004043684
-0.00892572
-0.003297027
-0.0103009
-0.01289781
-0.0144835
-0.01151563
-0.0167634
-0.009231651
-0.01017715
-0.006383803
-0.01064179
-0.009418858
-0.01540368
-0.007994864
-0.01614938
-0.01249034
-0.01100255
-0.007953107
-0.01305951
-0.007859808
-0.01548932
-0.008080497
-0.01757949
-0.02060238
-0.01261784
-0.01577209
-0.01306633
-0.004625389
-0.01584832
-0.006563809
-0.01654802
-0.0183432
-0.01249701
-0.0156949
-0.01099717
0.008007312
-0.0142565
-0.002163679
-0.01538779
-0.0131777
-0.0116671
-0.010975
-0.009874447
0.008508133
-0.01304755
-0.0002931226
-0.01398508
-0.01013209
-0.01142739
-0.008934409
-0.009725205
0.009983833
-0.01243765
0.0007109249
-0.01336975
-0.008231022
-0.01145192
-0.007348182
-0.009652014
0.01135838
-0.01197058
0.001568777
-0.01301274
-0.006706661
-0.01150313
-0.006305803
-0.008445619
0.0118934
-0.01162459
0.002080272
-0.01256706
-0.00582589
-0.01109192
-0.005831956
-0.007007206
0.01203366
-0.01131545
0.002050215
-0.01210439
-0.005752178
-0.01049312
-0.006240567
-0.007188049
0.01184565
-0.01127003
-0.006743896
-0.007246817
0.01183423
-0.01105977
0.001642461
-0.01134477
-0.007002295
-0.008545157
-0.007333489
-0.007262541
0.01168452
-0.01080414
0.001411173
-0.01116412
-0.007475694
-0.007264867
-0.00790191
-0.007375248
0.01146224
-0.01061722
0.001202533
-0.01108216
-0.007783549
-0.006979785
-0.008418538
-0.00748612
0.0113413
-0.01047181
0.001048518
-0.01096014
-0.007940246
-0.007023777
-0.008849864
-0.007567454
0.01126064
-0.01034603
0.000958631
-0.01074831
-0.008114662
-0.007159454
-0.009210638
-0.007730968
0.01119375
-0.0102981
0.0008592753
-0.0106024
-0.008502666
-0.007330346
-0.009554419
-0.007884879
0.01101322
-0.01033338
0.0006864791
-0.01058552
-0.009128417
-0.007437675
-0.009936417
0.01998017
-0.01037917
0.01075346
-0.001409153
-0.03834575
-0.004854154
0.01581634
-0.001260988
-8.690283e-05
0.002287728
0.001010373
0.01397075
-0.0002270099
-0.002523477
0.001431957
0.01466233
-0.001501208
0.0002926094
0.001191979
0.01426284
-0.0008086131
-0.002073265
0.001757827
0.01556003
-0.0009597681
-0.00262917
0.001774179
0.0152596
-0.001024611
0.04002884
0.02270404
0.009213219
0.002621041
0.02933547
0.02001008
0.00445491
0.00351765
0.01916235
0.01426289
0.002653247
0.004498971
0.01200047
0.006661675
0.0005596726
0.004084719
0.008438013
0.001035225
-0.00101373
0.002659777
0.009952828
-0.000483256
-0.0008296823
0.001907662
0.0086721
-0.0005648534
-5.2467e-05
0.001435011
0.007704758
-0.002349474
-0.00024289
0.001093439
0.008581147
-0.002161751
0.0006034422
0.001122118
0.01000469
-0.00218321
0.001572765
0.001602873
0.01052435
-0.002079261
0.00193781
0.001879156
0.01042011
-0.001922729
0.002043052
0.001974579
0.01025253
-0.001793722
0.002082575
0.001956571
0.009946715
-0.001638919
0.002098222
0.001922281
0.009328624
-0.001446625
0.001924331
0.001750489
0.00891148
-0.001239339
0.00182224
0.001622508
0.008608536
-0.0009379692
0.001769119
0.001568619
0.008269737
-0.0006322326
0.001722615
0.001557702
0.007959694
-0.0003433821
0.001700095
0.0016149
0.007722212
-9.225125e-05
0.001660178
0.001640311
0.007452251
8.905974e-05
0.00158202
0.001637933
0.00715854
0.0002352538
0.001473205
0.001634864
0.006877485
0.0003755894
0.001359976
0.001629469
-0.01471219
-5.347106e-05
0.005877308