/*--------------------------------*- C++ -*----------------------------------*\
  =========                 |
  \\      /  F ield         | OpenFOAM: The Open Source CFD Toolbox
   \\    /   O peration     | Website:  https://openfoam.org
    \\  /    A nd           | Version:  7
     \\/     M anipulation  |
\*---------------------------------------------------------------------------*/
FoamFile
{
    version     2.0;
    format      ascii;
    class       volScalarField;
    location    "0.07";
    object      k;
}
// * * * * * * * * * * * * * * * * * * * * * * * * * * * * * * * * * * * * * //

dimensions      [0 2 -2 0 0 0 0];

internalField   nonuniform List<scalar> 
73374
(
0.003850013
0.00375512
0.003756899
0.00375685
0.003756228
0.0037562
0.003756221
0.003756196
0.003756208
0.00375622
0.003756265
0.003850951
0.003758818
0.00375954
0.003760049
0.003759978
0.003759932
0.003760431
0.003760606
0.003760634
0.003760807
0.00376107
0.003847267
0.003758357
0.003759465
0.003759799
0.003759706
0.003759691
0.003760147
0.003760155
0.003760256
0.003760533
0.003760901
0.003843774
0.003757406
0.003758282
0.003758564
0.003758611
0.003758671
0.003758985
0.003759141
0.003759364
0.003759693
0.003760119
0.003839598
0.003756835
0.003757643
0.003757925
0.003758047
0.003758099
0.003758363
0.003758534
0.003758796
0.003759157
0.003759632
0.003834822
0.003756067
0.003756862
0.003757064
0.003757174
0.003757281
0.003757467
0.003757668
0.003757938
0.003758309
0.003758813
0.003830137
0.003755364
0.003756129
0.003756316
0.003756426
0.003756526
0.003756691
0.003756864
0.003757124
0.003757487
0.003757995
0.003825451
0.00375464
0.003755366
0.003755528
0.003755619
0.003755704
0.003755812
0.003755949
0.003756149
0.003756451
0.003756924
0.003820843
0.003753935
0.003754622
0.003754765
0.003754838
0.003754897
0.003754955
0.003755032
0.00375514
0.003755359
0.003755739
0.003816296
0.003753239
0.003753884
0.003754008
0.003754061
0.003754087
0.00375408
0.003754046
0.003754007
0.003753997
0.003754171
0.003811805
0.00375256
0.003753167
0.00375328
0.003753321
0.003753325
0.003753257
0.003753158
0.003752881
0.003752761
0.003752584
0.003807377
0.003751892
0.00375247
0.003752583
0.003752626
0.003752617
0.003752497
0.003752185
0.00375171
0.003750698
0.003749787
0.003802989
0.003751232
0.003751791
0.003751923
0.00375199
0.003752023
0.003751862
0.003751613
0.003750507
0.003750522
0.003748136
0.003798607
0.00375057
0.003751126
0.003751299
0.003751436
0.003751557
0.00375156
0.003751364
0.003750617
0.003749226
0.003743216
0.003794146
0.00374989
0.003750454
0.003750683
0.003750928
0.003751188
0.003751466
0.003751509
0.003751471
0.003757294
0.003761415
0.00378949
0.00374917
0.003749749
0.003750045
0.003750404
0.003750844
0.003751377
0.003751862
0.003752363
0.003762125
0.003795998
0.003784541
0.00374839
0.003748982
0.003749338
0.003749806
0.003750414
0.003751198
0.00375209
0.003752942
0.003766512
0.003807323
0.003779166
0.003747536
0.003748132
0.003748533
0.003749096
0.003749842
0.003750881
0.003752091
0.003753801
0.00377022
0.003823581
0.003773279
0.003746596
0.003747182
0.0037476
0.00374822
0.003749004
0.003750218
0.003751367
0.003753649
0.003770945
0.003843781
0.003766857
0.003764211
0.003764585
0.003548207
0.00353658
0.003575305
0.003548991
0.003545962
0.003542417
0.003540939
0.003541209
0.003542093
0.00354314
0.003764911
0.003508809
0.003510936
0.003510417
0.003511299
0.00351098
0.003510907
0.00351082
0.0035108
0.003510726
0.003510615
0.00375303
0.00350819
0.003508094
0.003508028
0.003508087
0.003508043
0.003508039
0.003508019
0.003508042
0.003508027
0.003508004
0.003758668
0.003507959
0.003507554
0.003507637
0.003507725
0.003507731
0.003507755
0.003507787
0.003507816
0.003507809
0.003507802
0.003757998
0.003507579
0.003507208
0.003507202
0.003507235
0.00350725
0.003507317
0.003507343
0.003507375
0.003507401
0.003507432
0.003757069
0.003507639
0.003507142
0.003507136
0.003507169
0.003507188
0.003507231
0.003507267
0.003507309
0.003507351
0.003507398
0.00375639
0.003507581
0.003507068
0.003507069
0.003507105
0.003507131
0.003507175
0.003507216
0.003507264
0.003507319
0.003507383
0.003755631
0.003507563
0.003507027
0.003507024
0.003507059
0.003507089
0.003507132
0.003507178
0.003507233
0.003507301
0.003507387
0.003754904
0.00350752
0.003506988
0.003506985
0.003507019
0.00350705
0.003507096
0.003507145
0.003507212
0.003507296
0.003507404
0.00375418
0.003507481
0.003506951
0.003506946
0.003506979
0.003507009
0.003507053
0.003507107
0.003507182
0.003507285
0.003507433
0.003753466
0.003507438
0.003506914
0.003506907
0.003506937
0.003506963
0.003507004
0.003507061
0.003507144
0.003507287
0.003507473
0.003752766
0.003507397
0.003506877
0.003506868
0.003506894
0.003506914
0.003506949
0.003506997
0.003507087
0.003507227
0.003507587
0.003752074
0.003507359
0.003506842
0.003506828
0.003506848
0.003506861
0.003506886
0.003506932
0.003507026
0.003507359
0.003507842
0.003751389
0.00350733
0.003506809
0.003506794
0.003506809
0.003506814
0.003506825
0.003506852
0.003507073
0.003507289
0.003509256
0.0037507
0.003507313
0.003506783
0.003506762
0.003506777
0.003506765
0.003506777
0.003506801
0.003506759
0.003507991
0.003508413
0.003749992
0.003507314
0.003506766
0.003506748
0.00350676
0.003506758
0.003506754
0.003506767
0.003506888
0.003507708
0.003517259
0.003749248
0.003507335
0.00350676
0.003506747
0.003506774
0.003506788
0.003506829
0.003506888
0.003507114
0.003508292
0.003509619
0.003748446
0.003507376
0.003506764
0.003506762
0.003506806
0.00350685
0.003506935
0.00350706
0.003507497
0.00350811
0.003509824
0.003747573
0.003507429
0.003506776
0.003506787
0.003506859
0.003506945
0.003507126
0.003507399
0.003508487
0.003511111
0.003525294
0.003746619
0.00350749
0.00350679
0.003506818
0.003506911
0.003507051
0.00350728
0.003507791
0.003508716
0.003513534
0.003537841
0.003520426
0.003544728
0.003523435
0.00352433
0.003523364
0.003522675
0.003522506
0.003522513
0.003521583
0.003522896
0.003521519
0.003766049
0.003509599
0.003510385
0.003508442
0.003507549
0.003507988
0.003507737
0.003507825
0.003507801
0.003507408
0.003507458
0.003753886
0.003508036
0.00350749
0.003507365
0.003507453
0.003507095
0.003507188
0.003507124
0.003507144
0.003507284
0.003507266
0.003759161
0.003508407
0.003507024
0.003507026
0.00350703
0.00350706
0.003507069
0.003507112
0.003507132
0.003507159
0.003507202
0.003758393
0.003507588
0.003506935
0.003506941
0.003506991
0.003507005
0.003507056
0.003507076
0.003507114
0.003507174
0.003507217
0.003757597
0.003507578
0.00350691
0.003506935
0.003506971
0.003507
0.003507042
0.003507075
0.003507117
0.003507167
0.003507223
0.003756888
0.003507484
0.003506918
0.003506945
0.003506973
0.003507008
0.00350705
0.00350709
0.003507138
0.003507202
0.003507269
0.003756127
0.003507448
0.003506882
0.003506909
0.003506939
0.003506976
0.003507017
0.003507064
0.003507122
0.003507195
0.00350728
0.00375538
0.003507402
0.003506853
0.003506883
0.003506913
0.003506951
0.003506994
0.003507047
0.003507115
0.003507201
0.003507309
0.003754635
0.00350736
0.00350682
0.003506848
0.003506879
0.003506915
0.003506959
0.003507014
0.003507092
0.003507197
0.003507349
0.003753895
0.003507317
0.003506786
0.003506813
0.003506841
0.003506875
0.003506916
0.003506976
0.003507063
0.0035072
0.003507387
0.003753173
0.003507276
0.003506751
0.003506774
0.003506798
0.003506825
0.003506861
0.003506914
0.003507014
0.00350716
0.003507506
0.003752456
0.003507237
0.003506717
0.003506737
0.003506755
0.003506775
0.003506799
0.003506855
0.003506959
0.003507264
0.003507689
0.003751742
0.003507207
0.003506686
0.003506702
0.003506712
0.003506722
0.003506729
0.003506768
0.003506915
0.003507127
0.003508987
0.003751027
0.003507188
0.00350666
0.003506673
0.003506679
0.003506678
0.003506669
0.003506697
0.003506694
0.003507811
0.003508141
0.003750289
0.003507187
0.003506643
0.00350666
0.003506666
0.003506674
0.003506671
0.003506677
0.003506806
0.003507651
0.003515323
0.003749514
0.003507205
0.003506636
0.00350666
0.003506681
0.003506704
0.003506731
0.003506802
0.003507007
0.003508335
0.003509508
0.003748678
0.00350724
0.003506637
0.003506674
0.003506713
0.003506766
0.003506845
0.003506952
0.003507427
0.003507903
0.003509091
0.003747769
0.003507287
0.003506645
0.003506699
0.003506763
0.003506862
0.003507017
0.003507312
0.003508335
0.003511226
0.003531137
0.003746777
0.003507339
0.003506655
0.003506727
0.003506813
0.00350697
0.003507165
0.003507723
0.003508592
0.003513691
0.003536929
0.003519323
0.003555693
0.003523938
0.003525427
0.003523165
0.003526868
0.003522451
0.003523633
0.003522938
0.003522315
0.003522813
0.003766472
0.003510623
0.003509357
0.003509355
0.003508653
0.003509599
0.00350826
0.003508074
0.003508141
0.003507727
0.003507821
0.003753861
0.003508012
0.003508347
0.003507344
0.003506994
0.003507237
0.003507061
0.003507224
0.003507189
0.003507145
0.003507224
0.003759352
0.003508483
0.003507028
0.003506997
0.003507055
0.003507072
0.003507091
0.003507109
0.003507134
0.003507161
0.003507193
0.003758612
0.003507569
0.003506956
0.003506983
0.003507023
0.003507043
0.003507097
0.003507099
0.003507129
0.003507151
0.003507209
0.003757808
0.003507577
0.003506898
0.003506923
0.003506944
0.00350698
0.003507011
0.003507049
0.003507101
0.003507162
0.003507215
0.003757037
0.003507475
0.00350692
0.003506951
0.00350699
0.00350702
0.003507061
0.003507102
0.003507148
0.003507204
0.00350727
0.00375626
0.003507436
0.00350688
0.00350691
0.003506948
0.00350698
0.003507026
0.003507069
0.003507127
0.003507196
0.003507282
0.003755494
0.003507391
0.003506853
0.003506884
0.00350692
0.003506955
0.003507
0.003507051
0.003507117
0.003507204
0.003507311
0.003754741
0.003507351
0.003506819
0.003506848
0.00350688
0.003506916
0.00350696
0.003507014
0.003507092
0.003507196
0.003507345
0.003753992
0.003507306
0.003506786
0.003506813
0.003506842
0.003506875
0.003506917
0.003506975
0.00350706
0.003507203
0.003507385
0.003753256
0.003507264
0.003506751
0.003506774
0.003506799
0.003506825
0.003506862
0.003506912
0.00350701
0.003507153
0.003507497
0.003752525
0.003507226
0.003506717
0.003506736
0.003506756
0.003506774
0.0035068
0.003506852
0.003506949
0.003507245
0.003507681
0.003751801
0.003507198
0.003506686
0.003506702
0.003506714
0.003506723
0.003506736
0.003506764
0.003506927
0.003507144
0.003508956
0.003751077
0.003507179
0.00350666
0.003506673
0.003506681
0.003506678
0.003506673
0.003506698
0.003506701
0.00350801
0.003508174
0.003750328
0.003507178
0.003506643
0.003506659
0.003506667
0.003506674
0.00350667
0.003506678
0.0035068
0.003507717
0.00351547
0.003749543
0.003507195
0.003506635
0.003506659
0.003506681
0.003506703
0.003506731
0.003506799
0.003507012
0.003508305
0.003509557
0.003748695
0.003507229
0.003506637
0.003506673
0.003506713
0.003506764
0.003506844
0.003506945
0.00350742
0.003507904
0.003509014
0.003747774
0.003507275
0.003506644
0.003506697
0.003506764
0.003506859
0.003507018
0.003507299
0.003508331
0.003511268
0.003530642
0.003746767
0.003507327
0.003506654
0.003506725
0.003506814
0.003506968
0.003507167
0.003507715
0.003508593
0.003513767
0.003537024
0.003519299
0.003560839
0.003523144
0.003525724
0.003525876
0.003522234
0.003523057
0.003522946
0.003522483
0.003522862
0.003522141
0.003767357
0.003510531
0.003508196
0.003509525
0.003509219
0.003507371
0.003507569
0.003507621
0.003507385
0.003507462
0.00350745
0.003753889
0.003508067
0.003508202
0.003507218
0.003507251
0.003507257
0.003507218
0.003507165
0.003507225
0.003507259
0.003507232
0.003759385
0.003508524
0.003506994
0.003506962
0.003507008
0.00350703
0.003507045
0.003507057
0.003507096
0.003507117
0.003507164
0.003758568
0.00350759
0.003506927
0.003507008
0.003506955
0.003507055
0.003507013
0.00350711
0.003507149
0.00350716
0.003507178
0.003757773
0.00350759
0.003506902
0.003506911
0.003506946
0.003506977
0.00350701
0.003507049
0.003507094
0.003507133
0.003507208
0.003757046
0.003507475
0.00350691
0.003506956
0.003506967
0.003507017
0.003507036
0.003507099
0.003507152
0.003507203
0.003507261
0.003756254
0.003507439
0.003506873
0.003506911
0.00350693
0.003506975
0.003507006
0.003507066
0.003507131
0.003507197
0.003507274
0.003755513
0.003507397
0.003506847
0.003506884
0.003506908
0.003506952
0.003506991
0.003507049
0.003507118
0.003507203
0.003507309
0.003754765
0.00350735
0.003506816
0.003506846
0.003506876
0.003506914
0.003506956
0.003507013
0.003507092
0.003507194
0.003507343
0.003753994
0.003507308
0.003506783
0.003506811
0.00350684
0.003506874
0.003506915
0.003506973
0.003507058
0.003507199
0.003507383
0.003753282
0.003507273
0.003506749
0.003506773
0.003506797
0.003506824
0.00350686
0.003506909
0.003507006
0.003507148
0.00350749
0.003752549
0.003507224
0.003506717
0.003506735
0.003506755
0.003506772
0.003506796
0.003506845
0.003506938
0.003507237
0.003507671
0.003751813
0.003507202
0.003506685
0.003506701
0.003506712
0.003506721
0.00350673
0.00350676
0.003506908
0.00350712
0.00350891
0.003751094
0.003507178
0.003506659
0.003506672
0.00350668
0.003506676
0.00350667
0.003506689
0.003506683
0.003507967
0.003508067
0.003750335
0.003507179
0.003506641
0.003506659
0.003506666
0.003506672
0.003506668
0.003506673
0.003506799
0.003507702
0.003515435
0.00374955
0.003507195
0.003506634
0.003506658
0.003506681
0.003506702
0.00350673
0.003506797
0.003507013
0.003508272
0.003509552
0.003748699
0.00350723
0.003506635
0.003506673
0.003506713
0.003506762
0.003506843
0.003506938
0.003507412
0.003507869
0.00350901
0.003747774
0.003507276
0.003506643
0.003506697
0.003506763
0.003506858
0.003507017
0.003507295
0.003508316
0.003511233
0.00353172
0.003746763
0.003507328
0.003506652
0.003506724
0.003506813
0.003506967
0.003507165
0.003507707
0.003508582
0.003513562
0.003537206
0.00351927
0.003568236
0.003522884
0.003527282
0.003522435
0.003522492
0.003522445
0.003523925
0.003523369
0.003522365
0.00352198
0.003767575
0.003510976
0.003507917
0.003509428
0.003507807
0.003507333
0.003507632
0.003507989
0.00350748
0.003507596
0.003507428
0.003754058
0.003507987
0.003508026
0.003507216
0.003507944
0.003507114
0.003507529
0.003507181
0.003507157
0.0035072
0.003507436
0.003759438
0.003508484
0.003506986
0.003507008
0.003507055
0.003507012
0.003507091
0.003507064
0.003507073
0.003507119
0.003507179
0.003758597
0.003507597
0.003506993
0.003506919
0.003507156
0.003506989
0.003507197
0.003507054
0.003507095
0.003507125
0.003507248
0.003757805
0.003507589
0.003506889
0.003506915
0.003506969
0.003506988
0.003507047
0.00350705
0.003507083
0.003507143
0.003507215
0.003757019
0.003507479
0.003506924
0.003506927
0.003506993
0.003507009
0.003507071
0.003507081
0.00350713
0.003507189
0.003507268
0.003756244
0.003507436
0.003506881
0.003506899
0.003506947
0.00350697
0.003507025
0.003507055
0.003507114
0.003507182
0.003507279
0.003755487
0.003507393
0.003506851
0.003506877
0.003506918
0.003506948
0.003506998
0.003507044
0.003507111
0.003507198
0.003507309
0.003754764
0.003507358
0.003506816
0.003506846
0.003506878
0.003506913
0.003506958
0.003507012
0.003507088
0.003507191
0.003507344
0.003754023
0.003507307
0.003506784
0.003506811
0.003506841
0.003506873
0.003506915
0.003506973
0.003507056
0.003507197
0.003507382
0.003753281
0.003507268
0.003506752
0.003506773
0.003506798
0.003506824
0.00350686
0.003506909
0.003507005
0.003507147
0.003507493
0.003752526
0.003507228
0.003506718
0.003506735
0.003506755
0.003506772
0.003506796
0.003506844
0.003506937
0.00350724
0.003507673
0.003751799
0.003507207
0.003506685
0.003506701
0.003506713
0.003506721
0.003506731
0.00350676
0.003506907
0.003507119
0.003508915
0.00375109
0.003507181
0.003506658
0.003506673
0.00350668
0.003506676
0.00350667
0.003506689
0.003506679
0.003507963
0.003508052
0.003750335
0.00350718
0.003506641
0.003506659
0.003506666
0.003506672
0.003506668
0.003506673
0.00350679
0.003507695
0.003515416
0.00374955
0.003507195
0.003506634
0.003506659
0.003506681
0.003506702
0.003506732
0.003506797
0.003507029
0.003508296
0.003509552
0.003748699
0.00350723
0.003506636
0.003506673
0.003506713
0.003506763
0.003506846
0.003506948
0.003507412
0.003507991
0.003509052
0.003747775
0.003507275
0.003506643
0.003506696
0.003506762
0.003506857
0.003507015
0.003507281
0.003508312
0.003510832
0.003531388
0.003746765
0.003507327
0.003506652
0.003506724
0.003506813
0.003506968
0.003507167
0.003507707
0.003508601
0.003513434
0.003537343
0.003745667
0.003519172
0.003564203
0.003523621
0.003523676
0.003525532
0.003522179
0.003523132
0.00352232
0.003521929
0.003522937
0.003522448
0.003767161
0.003511155
0.003508006
0.003509249
0.003509135
0.003507348
0.003507625
0.003507716
0.0035074
0.00350812
0.003508009
0.003753947
0.003507958
0.00350812
0.003507181
0.003507315
0.003507302
0.003507232
0.003507157
0.003507155
0.003507218
0.003507168
0.003759364
0.003508494
0.003507005
0.003506976
0.003507017
0.00350705
0.003507072
0.003507087
0.00350711
0.003507155
0.003507193
0.003758407
0.003507617
0.003506927
0.003507015
0.003506981
0.003507072
0.003507022
0.003507119
0.003507122
0.003507205
0.003507183
0.0037578
0.003507707
0.003506905
0.003506917
0.003506959
0.003506979
0.003507014
0.003507047
0.003507105
0.003507156
0.003507214
0.003756988
0.003507555
0.003506922
0.003506957
0.003506979
0.003507024
0.003507049
0.003507101
0.003507147
0.003507211
0.003507271
0.003756095
0.003507445
0.003506881
0.003506913
0.003506935
0.003506986
0.003507014
0.00350707
0.003507127
0.003507201
0.003507278
0.003755438
0.003507365
0.003506848
0.003506885
0.003506911
0.003506955
0.003506994
0.00350705
0.003507117
0.003507206
0.003507313
0.003754724
0.003507277
0.00350682
0.003506849
0.003506878
0.003506915
0.003506958
0.003507015
0.003507093
0.003507197
0.003507345
0.003753813
0.003507305
0.003506785
0.003506813
0.003506841
0.003506874
0.003506916
0.003506975
0.003507059
0.003507202
0.003507383
0.003753232
0.003507371
0.003506751
0.003506774
0.003506798
0.003506825
0.003506861
0.003506911
0.003507008
0.003507149
0.003507496
0.00375243
0.003507273
0.003506724
0.003506737
0.003506757
0.003506774
0.003506799
0.00350685
0.003506945
0.003507243
0.003507681
0.00375165
0.003507245
0.003506688
0.003506703
0.003506714
0.003506723
0.003506734
0.003506761
0.003506924
0.003507139
0.003508951
0.003751046
0.003507173
0.00350666
0.003506674
0.003506681
0.003506677
0.003506672
0.003506695
0.003506696
0.003507992
0.00350811
0.003750289
0.003507179
0.003506643
0.00350666
0.003506667
0.003506673
0.00350667
0.003506676
0.003506794
0.003507712
0.003515413
0.003749536
0.00350719
0.003506635
0.003506659
0.003506681
0.003506703
0.003506732
0.003506804
0.003507012
0.003508418
0.003509518
0.003748691
0.003507228
0.003506637
0.003506674
0.003506714
0.003506764
0.003506848
0.003506953
0.003507401
0.003508177
0.003509837
0.003747772
0.003507273
0.003506645
0.003506697
0.003506763
0.003506858
0.003507019
0.003507279
0.003508365
0.00351042
0.003522287
0.00374676
0.00350733
0.003506654
0.003506726
0.003506814
0.00350697
0.00350717
0.00350773
0.003508617
0.00351365
0.00353694
0.003745677
0.003507373
0.003506657
0.003506736
0.003519437
0.003558448
0.003523328
0.003529119
0.003525026
0.003524861
0.003523078
0.003521916
0.003524072
0.003523191
0.003521913
0.003766663
0.003510757
0.003508981
0.003509792
0.00350864
0.003508288
0.003507871
0.003507736
0.003507908
0.0035079
0.003507691
0.003753242
0.00350765
0.003508113
0.003507147
0.003507019
0.003507255
0.003507115
0.003507208
0.00350715
0.003507246
0.003507335
0.003758935
0.003508311
0.003507002
0.003506988
0.003507012
0.003507042
0.003507069
0.003507101
0.003507131
0.003507164
0.003507218
0.003757853
0.003507581
0.003506952
0.00350702
0.003506965
0.003506993
0.003507043
0.003507085
0.003507105
0.003507156
0.003507254
0.003757227
0.003507756
0.003506936
0.003506915
0.003506959
0.003506988
0.003507026
0.003507072
0.003507108
0.003507158
0.003507225
0.003756731
0.003507716
0.00350694
0.003506956
0.003506983
0.003507005
0.003507052
0.003507093
0.003507137
0.003507198
0.003507268
0.003755928
0.003507471
0.003506884
0.003506912
0.003506937
0.003506969
0.003507013
0.00350706
0.003507116
0.003507188
0.003507276
0.003755229
0.003507211
0.003506837
0.00350689
0.003506911
0.003506947
0.003506992
0.003507046
0.003507112
0.0035072
0.003507309
0.003754421
0.003507181
0.003506799
0.003506857
0.003506876
0.003506914
0.003506956
0.003507013
0.00350709
0.003507195
0.003507344
0.003753628
0.003507275
0.003506789
0.003506815
0.003506841
0.003506874
0.003506916
0.003506975
0.003507061
0.003507197
0.003507384
0.003752856
0.003507428
0.003506773
0.00350677
0.003506801
0.003506824
0.00350686
0.003506912
0.003507011
0.003507156
0.003507501
0.003752424
0.003507451
0.003506736
0.003506732
0.003506757
0.003506773
0.003506799
0.003506853
0.003506954
0.003507258
0.003507682
0.003751648
0.00350728
0.003506692
0.003506701
0.003506713
0.00350672
0.003506728
0.003506763
0.003506908
0.00350712
0.00350898
0.003750999
0.003507205
0.003506658
0.003506674
0.003506679
0.003506677
0.003506667
0.003506692
0.00350669
0.00350779
0.003508169
0.003750284
0.003507192
0.003506642
0.00350666
0.003506666
0.003506673
0.003506669
0.003506675
0.003506802
0.00350766
0.00351525
0.003749514
0.003507198
0.003506636
0.00350666
0.003506681
0.003506704
0.003506731
0.003506811
0.003506988
0.003508462
0.003509515
0.003748674
0.003507229
0.003506638
0.003506674
0.003506714
0.003506762
0.00350685
0.003506946
0.003507411
0.003508266
0.003509978
0.003747775
0.003507283
0.003506645
0.003506698
0.003506762
0.003506859
0.003507018
0.003507284
0.003508402
0.003510446
0.003522721
0.003746789
0.003507339
0.003506656
0.003506727
0.003506813
0.003506973
0.003507169
0.003507747
0.003508602
0.003513439
0.003536078
0.003745695
0.003507374
0.00350666
0.003506738
0.00350684
0.003507003
0.003518849
0.003554186
0.003523905
0.003525695
0.003523916
0.003521864
0.003521605
0.003521958
0.003525682
0.003538417
0.003555709
0.003765979
0.003509964
0.003511974
0.003512084
0.003511759
0.00351196
0.003511783
0.003511553
0.003511109
0.003511824
0.003511971
0.003779637
0.00350754
0.00350807
0.003508257
0.003508308
0.00350795
0.003508198
0.003508167
0.003508452
0.003507892
0.003507992
0.0037806
0.003507398
0.003507465
0.003507543
0.003507561
0.00350753
0.003507566
0.003507584
0.003507644
0.003507662
0.003507803
0.003779778
0.003507141
0.003507112
0.003507198
0.003507274
0.003507232
0.003507271
0.003507357
0.003507389
0.003507439
0.003507449
0.003777389
0.003507064
0.003507062
0.003507086
0.00350713
0.00350715
0.003507194
0.003507235
0.003507261
0.00350733
0.003507391
0.003751702
0.00350765
0.003507142
0.003507047
0.003507107
0.003507117
0.003507158
0.003507207
0.003507254
0.00350731
0.003507374
0.003755384
0.003507558
0.003507031
0.003507002
0.003507047
0.003507073
0.003507112
0.003507164
0.003507217
0.003507289
0.00350737
0.003756842
0.003507454
0.00350691
0.003506984
0.003507002
0.003507041
0.003507083
0.003507138
0.003507204
0.003507292
0.0035074
0.00376277
0.003506951
0.003506954
0.003506938
0.003506973
0.003507001
0.003507045
0.0035071
0.003507176
0.003507281
0.003507428
0.003766236
0.003506958
0.003506915
0.003506908
0.003506933
0.003506959
0.003507001
0.003507059
0.003507141
0.003507284
0.003507468
0.003765544
0.003506859
0.00350686
0.003506861
0.003506887
0.00350691
0.003506945
0.003506993
0.003507083
0.003507224
0.003507585
0.003748038
0.003507297
0.003506933
0.003506818
0.003506856
0.00350686
0.003506885
0.003506929
0.003507022
0.003507354
0.003507838
0.003751404
0.003507455
0.003506808
0.003506785
0.003506809
0.003506811
0.003506823
0.003506849
0.003507066
0.003507283
0.003509242
0.003750926
0.003507305
0.003506781
0.003506761
0.003506778
0.003506763
0.003506775
0.003506795
0.003506757
0.003507972
0.003508167
0.003749985
0.003507319
0.003506761
0.003506747
0.003506759
0.003506756
0.003506752
0.003506763
0.003506895
0.003507675
0.003516407
0.003749286
0.003507334
0.003506763
0.003506747
0.003506772
0.003506786
0.003506819
0.003506889
0.003507281
0.003508141
0.003509527
0.003748476
0.003507346
0.003506768
0.00350676
0.003506805
0.003506851
0.003506932
0.003507086
0.003507453
0.00350834
0.003511179
0.003747586
0.00350741
0.003506777
0.003506787
0.00350686
0.003506944
0.003507143
0.003507398
0.003508432
0.003510795
0.00351717
0.003746605
0.003507508
0.003506799
0.003506815
0.003506909
0.003507053
0.003507283
0.003507784
0.003508772
0.003513596
0.003536142
0.003745581
0.003507531
0.003506804
0.003506827
0.003506939
0.003507079
0.003507374
0.003507738
0.003518346
0.003545863
0.003542545
0.003549062
0.003551129
0.003555838
0.003555198
0.003545362
0.003549968
0.003562534
0.003567145
0.003846529
0.003752438
0.003754537
0.003756265
0.003756187
0.003755802
0.003756002
0.003755582
0.00375541
0.003754515
0.003756261
0.003851061
0.003759164
0.003759274
0.003759655
0.003759816
0.003759675
0.003759979
0.003760098
0.003760236
0.003760812
0.003761439
0.003845298
0.003758184
0.003759614
0.0037602
0.003760322
0.003760288
0.003760373
0.00376056
0.003760649
0.003760986
0.003761332
0.003846644
0.00375727
0.003757919
0.003758361
0.003758522
0.003758566
0.003758767
0.003758956
0.003759158
0.003759611
0.003760033
0.003762269
0.003756911
0.003757594
0.003757859
0.003758057
0.003758131
0.003758294
0.003758471
0.003758714
0.003759204
0.003759591
0.003775271
0.003755964
0.003756784
0.003756963
0.003757096
0.003757203
0.003757366
0.003757565
0.003757827
0.003758259
0.003758732
0.003774799
0.003755228
0.003756024
0.00375626
0.003756383
0.003756465
0.003756618
0.003756807
0.003757063
0.003757458
0.003757946
0.00377229
0.003754512
0.003755321
0.003755488
0.003755582
0.003755659
0.003755759
0.003755898
0.003756094
0.00375641
0.003756875
0.003775
0.00375377
0.003754606
0.003754739
0.00375482
0.003754868
0.003754923
0.003755
0.003755105
0.003755329
0.003755704
0.003813254
0.003753139
0.003753823
0.003753991
0.003754036
0.003754062
0.003754053
0.003754018
0.003753978
0.003753964
0.003754153
0.003753072
0.003752577
0.003753165
0.003753275
0.003753314
0.00375331
0.003753241
0.003753137
0.003752861
0.00375274
0.003752568
0.003763739
0.003751892
0.003752466
0.003752566
0.003752619
0.0037526
0.003752484
0.003752166
0.003751691
0.003750666
0.003749766
0.003763253
0.003751176
0.003751739
0.003751903
0.00375198
0.003752009
0.003751854
0.00375159
0.003750492
0.003750488
0.003748105
0.003761015
0.003750436
0.003751131
0.003751282
0.003751432
0.003751545
0.003751554
0.003751335
0.003750608
0.003542619
0.003535563
0.003760378
0.003749852
0.003750426
0.003750675
0.003750919
0.003751178
0.003751472
0.003751491
0.003751535
0.003512199
0.003517865
0.003758193
0.003749182
0.003749731
0.003750043
0.0037504
0.003750835
0.003751395
0.003751845
0.003752534
0.003513047
0.003511763
0.00375628
0.003748392
0.003748972
0.003749334
0.003749793
0.003750423
0.003751142
0.003752198
0.003753049
0.00375155
0.00351295
0.003753224
0.003747523
0.003748123
0.00374853
0.003749087
0.003749849
0.003750856
0.003752158
0.003753854
0.003559932
0.003522848
0.003751127
0.003746637
0.003747161
0.003747603
0.003748215
0.003749005
0.003750233
0.003751365
0.003753797
0.003528159
0.00354435
0.00374828
0.00374564
0.003746127
0.003746535
0.003747152
0.003747916
0.003749074
0.003750127
0.003752107
0.003530869
0.003532533
0.003844909
0.003767543
0.003602126
0.003825419
0.00352303
0.003762567
0.003764344
0.003577727
0.003591425
0.003518546
0.003531718
0.003765939
0.003765829
0.003602169
0.003582644
0.003524166
0.003532649
0.003766788
0.00376736
0.003621843
0.003577702
0.003535211
0.00352837
0.003767844
0.003767049
0.003594169
0.003580035
0.003526416
0.003525997
0.003767571
0.003766176
0.003597348
0.003587122
0.003523666
0.003523327
0.003768206
0.00376655
0.00360267
0.003593988
0.003521545
0.003520882
0.00376911
0.003766648
0.003609239
0.003599313
0.003520677
0.003519542
0.003769436
0.00376668
0.003607292
0.003600854
0.003520686
0.003518801
0.003769659
0.003766829
0.003607126
0.003602067
0.003520727
0.003518714
0.003769992
0.003767042
0.003606174
0.003603284
0.0035209
0.003518934
0.00378243
0.003842833
0.003780494
0.003766218
0.00351316
0.003782076
0.003510624
0.003778974
0.003835966
0.003778294
0.00377828
0.003512103
0.003779018
0.00351248
0.003779133
0.00383327
0.003777366
0.003779998
0.003512192
0.003779212
0.003512232
0.003778295
0.003829475
0.00377625
0.003780051
0.003512331
0.003777995
0.003511237
0.003776565
0.00382513
0.0037744
0.003778251
0.003512344
0.003776139
0.003511304
0.003774676
0.003820701
0.00377258
0.003776276
0.003512105
0.003774194
0.003511066
0.003772748
0.003816295
0.003770723
0.003774261
0.003511992
0.003772281
0.003510975
0.003770837
0.003811948
0.003768904
0.003772267
0.003511844
0.003770381
0.003510844
0.003768957
0.003807676
0.003767117
0.003770306
0.003511718
0.00376852
0.003510726
0.003767114
0.003803475
0.003765362
0.003768381
0.003511589
0.003766698
0.003510605
0.003765307
0.003799349
0.003763639
0.003766495
0.003511463
0.003764913
0.003510491
0.003763537
0.00379528
0.003761948
0.003764647
0.003511345
0.003763157
0.003510376
0.003761794
0.003791233
0.003760276
0.003762826
0.003511227
0.003761418
0.003510273
0.003760063
0.003787141
0.003758599
0.003761016
0.00351112
0.003759674
0.003510176
0.003758307
0.003782897
0.003756873
0.00375918
0.003511028
0.003757884
0.003510091
0.003728343
0.003790275
0.003517734
0.003672422
0.003516559
0.003756483
0.003778398
0.003755053
0.003757273
0.003510951
0.003755999
0.00351001
0.003799286
0.003510382
0.003510546
0.003754541
0.003773538
0.003753097
0.003755245
0.003510878
0.003753964
0.0035099
0.003813103
0.003510778
0.003513183
0.003752432
0.003768228
0.003750957
0.003753048
0.003510809
0.00375174
0.003509781
0.003833356
0.003519558
0.00353454
0.003750123
0.003762434
0.003748607
0.00375065
0.003510737
0.003749307
0.003509668
0.003834046
0.003884391
0.003539071
0.003579801
0.003765994
0.003747603
0.003748047
0.00351065
0.003590048
0.003831344
0.003524972
0.003576067
0.003833023
0.003534208
0.003683265
0.003513931
0.003516436
0.003680405
0.003513934
0.003578719
0.003799263
0.003536161
0.003579226
0.00380602
0.003586762
0.003836457
0.003532534
0.003577335
0.003837865
0.00353449
0.003677147
0.003513832
0.003515331