/*--------------------------------*- C++ -*----------------------------------*\
  =========                 |
  \\      /  F ield         | OpenFOAM: The Open Source CFD Toolbox
   \\    /   O peration     | Website:  https://openfoam.org
    \\  /    A nd           | Version:  7
     \\/     M anipulation  |
\*---------------------------------------------------------------------------*/
FoamFile
{
    version     2.0;
    format      ascii;
    class       volScalarField;
    location    "0.07";
    object      nut;
}
// * * * * * * * * * * * * * * * * * * * * * * * * * * * * * * * * * * * * * //

dimensions      [0 2 -1 0 0 0 0];

internalField   nonuniform List<scalar> 
105056
(
0.0006535006
0.0006356619
0.0006341807
0.0006340814
0.0006341956
0.000635651
0.0006036958
0.0006006993
0.0006004048
0.0006005309
0.0006341664
0.0006006891
0.0005972743
0.0005968793
0.0005970048
0.0006340466
0.0006003493
0.0005968211
0.0005963799
0.0005964984
0.0006340695
0.0006003203
0.0005967552
0.0005962915
0.000596404
0.0006341159
0.0006003493
0.0005967704
0.0005962953
0.0005964016
0.0006341678
0.0006003947
0.0005968097
0.0005963276
0.0005964287
0.0006342217
0.0006004463
0.0005968579
0.0005963727
0.0005964703
0.0006342772
0.000600501
0.0005969099
0.0005964222
0.0005965171
0.0006343335
0.0006005577
0.0005969634
0.0005964745
0.0005965671
0.0006343907
0.0006006155
0.000597019
0.0005965285
0.0005966193
0.0006344485
0.0006006738
0.0005970751
0.0005965838
0.0005966731
0.0006345067
0.0006007329
0.000597132
0.0005966403
0.0005967281
0.0006345655
0.0006007927
0.0005971902
0.0005966974
0.0005967843
0.0006346248
0.0006008535
0.0005972492
0.0005967565
0.0005968416
0.0006346844
0.000600915
0.0005973095
0.0005968151
0.0005969001
0.0006347446
0.0006009773
0.0005973716
0.0005968749
0.0005969602
0.0006348057
0.0006010412
0.0005974355
0.0005969376
0.0005970239
0.0006348684
0.0006011077
0.0005975036
0.0005970053
0.0005970915
0.000634935
0.0006011827
0.0005975837
0.0005970869
0.0005971722
0.0006350177
0.0006012917
0.0005977087
0.0005972175
0.0005973017
0.0006351674
0.0006015155
0.0005979751
0.0005974989
0.0005975778
0.0001009193
0.0006019256
0.0005984517
0.0005979997
0.0005980657
0.0005948533
0.0005942959
0.0005944062
0.0005944811
0.0005945495
0.0005948692
0.0001006917
0.0001006916
0.0001006917
0.0001006917
0.0001006917
0.0005943067
0.0001006917
0.0001006917
0.0001006917
0.0001006917
0.0001006917
0.0005944164
0.0001006917
0.0001006917
0.0001006917
0.0001006918
0.0001006918
0.0005944912
0.0001006918
0.0001006917
0.0001006918
0.0001006918
0.0001006918
0.0005945509
0.0001006918
0.0001006918
0.0001006918
0.0001006918
0.0001006919
0.000594609
0.0001006919
0.0001006918
0.0001006919
0.0001006919
0.0001006919
0.0005946664
0.0001006919
0.0001006919
0.0001006919
0.0001006919
0.000100692
0.0005947237
0.000100692
0.0001006919
0.000100692
0.000100692
0.000100692
0.0005947811
0.000100692
0.000100692
0.000100692
0.000100692
0.0001006921
0.0005948385
0.0001006921
0.000100692
0.000100692
0.0001006921
0.0001006921
0.0005948968
0.0001006921
0.0001006921
0.0001006921
0.0001006921
0.0001006921
0.0005949555
0.0001006922
0.0001006921
0.0001006921
0.0001006922
0.0001006922
0.0005950146
0.0001006923
0.0001006922
0.0001006922
0.0001006922
0.0001006923
0.000595074
0.0001006923
0.0001006922
0.0001006923
0.0001006923
0.0001006923
0.0005951339
0.0001006924
0.0001006923
0.0001006923
0.0001006923
0.0001006924
0.0005951942
0.0001006924
0.0001006923
0.0001006924
0.0001006924
0.0001006924
0.0005952548
0.0001006925
0.0001006924
0.0001006924
0.0001006924
0.0001006925
0.0005953163
0.0001006926
0.0001006924
0.0001006925
0.0001006925
0.0001006925
0.0005953785
0.0001006926
0.0001006925
0.0001006925
0.0001006925
0.0001006926
0.0005954412
0.0001006927
0.0001006925
0.0001006926
0.0001006926
0.0001006926
0.0005955052
0.0001006927
0.0001006926
0.0001006926
0.0001006927
0.0001006927
0.0005955747
0.0001006928
0.0001006927
0.0001006927
0.0001006927
0.0001006928
0.0005958321
0.0001006929
0.0001006927
0.0001006928
0.0001006928
0.0001006928
0.0005959083
0.000594606
0.0005947764
0.0005948889
0.0005949506
0.0005959358
0.0001006917
0.0001006916
0.0001006916
0.0001006917
0.0001006917
0.0005946169
0.0001006917
0.0001006916
0.0001006917
0.0001006917
0.0001006917
0.0005947861
0.0001006917
0.0001006917
0.0001006917
0.0001006917
0.0001006918
0.0005949018
0.0001006918
0.0001006917
0.0001006918
0.0001006918
0.0001006918
0.0005949713
0.0001006918
0.0001006918
0.0001006918
0.0001006918
0.0001006918
0.0005950328
0.0001006919
0.0001006918
0.0001006918
0.0001006919
0.0001006919
0.0005950927
0.0001006919
0.0001006919
0.0001006919
0.0001006919
0.0001006919
0.0005951512
0.000100692
0.0001006919
0.0001006919
0.000100692
0.000100692
0.0005952097
0.000100692
0.0001006919
0.000100692
0.000100692
0.000100692
0.0005952684
0.000100692
0.000100692
0.000100692
0.000100692
0.0001006921
0.0005953275
0.0001006921
0.000100692
0.0001006921
0.0001006921
0.0001006921
0.0005953872
0.0001006921
0.0001006921
0.0001006921
0.0001006921
0.0001006922
0.0005954476
0.0001006922
0.0001006921
0.0001006922
0.0001006922
0.0001006922
0.0005955082
0.0001006922
0.0001006922
0.0001006922
0.0001006922
0.0001006923
0.0005955691
0.0001006923
0.0001006922
0.0001006923
0.0001006923
0.0001006923
0.0005956309
0.0001006924
0.0001006923
0.0001006923
0.0001006923
0.0001006924
0.0005956933
0.0001006924
0.0001006923
0.0001006924
0.0001006924
0.0001006924
0.000595756
0.0001006925
0.0001006924
0.0001006924
0.0001006924
0.0001006925
0.0005958193
0.0001006925
0.0001006924
0.0001006925
0.0001006925
0.0001006925
0.0005958824
0.0001006926
0.0001006925
0.0001006925
0.0001006925
0.0001006926
0.0005959439
0.0001006926
0.0001006925
0.0001006926
0.0001006926
0.0001006926
0.0005959997
0.0001006927
0.0001006926
0.0001006926
0.0001006927
0.0001006927
0.0005960558
0.0001006928
0.0001006926
0.0001006927
0.0001006927
0.0001006927
0.0005960433
0.0005947885
0.0005949809
0.0005951081
0.0005951641
0.0005960734
0.0001006917
0.0001006916
0.0001006916
0.0001006917
0.0001006917
0.0005947997
0.0001006917
0.0001006916
0.0001006917
0.0001006917
0.0001006917
0.0005949921
0.0001006917
0.0001006917
0.0001006917
0.0001006917
0.0001006918
0.0005951254
0.0001006918
0.0001006917
0.0001006918
0.0001006918
0.0001006918
0.0005952023
0.0001006918
0.0001006918
0.0001006918
0.0001006918
0.0001006918
0.0005952669
0.0001006919
0.0001006918
0.0001006918
0.0001006919
0.0001006919
0.0005953274
0.0001006919
0.0001006919
0.0001006919
0.0001006919
0.0001006919
0.000595387
0.000100692
0.0001006919
0.0001006919
0.000100692
0.000100692
0.0005954456
0.000100692
0.0001006919
0.000100692
0.000100692
0.000100692
0.0005955044
0.000100692
0.000100692
0.000100692
0.000100692
0.0001006921
0.0005955634
0.0001006921
0.000100692
0.0001006921
0.0001006921
0.0001006921
0.0005956232
0.0001006921
0.0001006921
0.0001006921
0.0001006921
0.0001006922
0.0005956835
0.0001006922
0.0001006921
0.0001006922
0.0001006922
0.0001006922
0.0005957443
0.0001006922
0.0001006922
0.0001006922
0.0001006922
0.0001006923
0.0005958055
0.0001006923
0.0001006922
0.0001006923
0.0001006923
0.0001006923
0.0005958674
0.0001006923
0.0001006923
0.0001006923
0.0001006923
0.0001006924
0.000595929
0.0001006924
0.0001006923
0.0001006924
0.0001006924
0.0001006924
0.0005959919
0.0001006925
0.0001006924
0.0001006924
0.0001006924
0.0001006925
0.000596055
0.0001006925
0.0001006924
0.0001006925
0.0001006925
0.0001006925
0.000596118
0.0001006926
0.0001006925
0.0001006925
0.0001006925
0.0001006926
0.0005961758
0.0001006926
0.0001006925
0.0001006926
0.0001006926
0.0001006926
0.0005962211
0.0001006927
0.0001006926
0.0001006926
0.0001006927
0.0001006927
0.0005962472
0.0001006928
0.0001006926
0.0001006927
0.0001006927
0.0001006927
0.0005960741
0.0005948402
0.0005950449
0.0005951759
0.0005952314
0.0005960969
0.0001006917
0.0001006916
0.0001006916
0.0001006917
0.0001006917
0.0005948523
0.0001006917
0.0001006916
0.0001006917
0.0001006917
0.0001006917
0.0005950572
0.0001006917
0.0001006917
0.0001006917
0.0001006917
0.0001006918
0.0005951964
0.0001006918
0.0001006917
0.0001006918
0.0001006918
0.0001006918
0.0005952753
0.0001006918
0.0001006918
0.0001006918
0.0001006918
0.0001006918
0.0005953418
0.0001006919
0.0001006918
0.0001006918
0.0001006919
0.0001006919
0.0005954017
0.0001006919
0.0001006919
0.0001006919
0.0001006919
0.0001006919
0.0005954624
0.000100692
0.0001006919
0.0001006919
0.000100692
0.000100692
0.0005955214
0.000100692
0.0001006919
0.000100692
0.000100692
0.000100692
0.0005955801
0.000100692
0.000100692
0.000100692
0.000100692
0.0001006921
0.000595639
0.0001006921
0.000100692
0.0001006921
0.0001006921
0.0001006921
0.000595699
0.0001006921
0.0001006921
0.0001006921
0.0001006921
0.0001006922
0.0005957591
0.0001006922
0.0001006921
0.0001006922
0.0001006922
0.0001006922
0.00059582
0.0001006922
0.0001006922
0.0001006922
0.0001006922
0.0001006923
0.0005958809
0.0001006923
0.0001006922
0.0001006923
0.0001006923
0.0001006923
0.0005959431
0.0001006924
0.0001006923
0.0001006923
0.0001006923
0.0001006924
0.0005960044
0.0001006924
0.0001006923
0.0001006924
0.0001006924
0.0001006924
0.0005960673
0.0001006925
0.0001006924
0.0001006924
0.0001006924
0.0001006925
0.0005961301
0.0001006925
0.0001006924
0.0001006925
0.0001006925
0.0001006925
0.0005961914
0.0001006926
0.0001006925
0.0001006925
0.0001006925
0.0001006926
0.0005962484
0.0001006926
0.0001006925
0.0001006926
0.0001006926
0.0001006926
0.0005962895
0.0001006927
0.0001006926
0.0001006926
0.0001006927
0.0001006927
0.0005963083
0.0001006927
0.0001006926
0.0001006927
0.0001006927
0.0001006927
0.0005960677
0.0005948429
0.0005950479
0.0005951783
0.0005952337
0.0005961007
0.0001006917
0.0001006916
0.0001006916
0.0001006917
0.0001006917
0.0005948551
0.0001006917
0.0001006916
0.0001006917
0.0001006917
0.0001006917
0.0005950599
0.0001006917
0.0001006917
0.0001006917
0.0001006917
0.0001006918
0.0005951994
0.0001006918
0.0001006917
0.0001006918
0.0001006918
0.0001006918
0.0005952792
0.0001006918
0.0001006918
0.0001006918
0.0001006918
0.0001006918
0.0005953456
0.0001006919
0.0001006918
0.0001006918
0.0001006919
0.0001006919
0.0005954051
0.0001006919
0.0001006919
0.0001006919
0.0001006919
0.0001006919
0.0005954656
0.000100692
0.0001006919
0.0001006919
0.000100692
0.000100692
0.0005955247
0.000100692
0.0001006919
0.000100692
0.000100692
0.000100692
0.0005955835
0.000100692
0.000100692
0.000100692
0.000100692
0.0001006921
0.0005956422
0.0001006921
0.000100692
0.0001006921
0.0001006921
0.0001006921
0.0005957018
0.0001006921
0.0001006921
0.0001006921
0.0001006921
0.0001006922
0.0005957618
0.0001006922
0.0001006921
0.0001006922
0.0001006922
0.0001006922
0.0005958227
0.0001006922
0.0001006922
0.0001006922
0.0001006922
0.0001006923
0.0005958837
0.0001006923
0.0001006922
0.0001006923
0.0001006923
0.0001006923
0.0005959456
0.0001006923
0.0001006923
0.0001006923
0.0001006923
0.0001006924
0.0005960076
0.0001006924
0.0001006923
0.0001006924
0.0001006924
0.0001006924
0.0005960704
0.0001006925
0.0001006924
0.0001006924
0.0001006924
0.0001006925
0.0005961332
0.0001006925
0.0001006924
0.0001006925
0.0001006925
0.0001006925
0.0005961949
0.0001006926
0.0001006925
0.0001006925
0.0001006925
0.0001006926
0.0005962518
0.0001006926
0.0001006925
0.0001006926
0.0001006926
0.0001006926
0.0005962921
0.0001006927
0.0001006926
0.0001006926
0.0001006927
0.0001006927
0.0005963104
0.0001006927
0.0001006926
0.0001006927
0.0001006927
0.0001006927
0.0005960661
0.0005948194
0.0005950168
0.0005951452
0.0005951994
0.0005960901
0.0001006917
0.0001006916
0.0001006916
0.0001006917
0.0001006917
0.0005948319
0.0001006917
0.0001006916
0.0001006917
0.0001006917
0.0001006917
0.0005950288
0.0001006917
0.0001006917
0.0001006917
0.0001006917
0.0001006918
0.0005951635
0.0001006918
0.0001006917
0.0001006918
0.0001006918
0.0001006918
0.0005952407
0.0001006918
0.0001006918
0.0001006918
0.0001006918
0.0001006918
0.000595306
0.0001006919
0.0001006918
0.0001006918
0.0001006919
0.0001006919
0.0005953657
0.0001006919
0.0001006919
0.0001006919
0.0001006919
0.0001006919
0.0005954252
0.000100692
0.0001006919
0.0001006919
0.000100692
0.000100692
0.000595484
0.000100692
0.0001006919
0.000100692
0.000100692
0.000100692
0.0005955436
0.000100692
0.000100692
0.000100692
0.000100692
0.0001006921
0.0005956026
0.0001006921
0.000100692
0.0001006921
0.0001006921
0.0001006921
0.0005956622
0.0001006921
0.0001006921
0.0001006921
0.0001006921
0.0001006922
0.0005957224
0.0001006922
0.0001006921
0.0001006922
0.0001006922
0.0001006922
0.0005957832
0.0001006922
0.0001006922
0.0001006922
0.0001006922
0.0001006923
0.0005958444
0.0001006923
0.0001006922
0.0001006923
0.0001006923
0.0001006923
0.0005959062
0.0001006923
0.0001006923
0.0001006923
0.0001006923
0.0001006924
0.0005959677
0.0001006924
0.0001006923
0.0001006924
0.0001006924
0.0001006924
0.0005960304
0.0001006925
0.0001006924
0.0001006924
0.0001006924
0.0001006925
0.0005960934
0.0001006925
0.0001006924
0.0001006925
0.0001006925
0.0001006925
0.0005961558
0.0001006926
0.0001006925
0.0001006925
0.0001006925
0.0001006926
0.0005962138
0.0001006926
0.0001006925
0.0001006926
0.0001006926
0.0001006926
0.0005962564
0.0001006927
0.0001006926
0.0001006926
0.0001006927
0.0001006927
0.000596278
0.0001006928
0.0001006926
0.0001006927
0.0001006927
0.0001006927
0.0005959825
0.0005946666
0.0005948353
0.0005949542
0.0005950127
0.000596011
0.0001006917
0.0001006916
0.0001006916
0.0001006917
0.0001006917
0.0005946784
0.0001006917
0.0001006916
0.0001006917
0.0001006917
0.0001006917
0.0005948475
0.0001006917
0.0001006917
0.0001006917
0.0001006917
0.0001006918
0.0005949697
0.0001006918
0.0001006917
0.0001006918
0.0001006918
0.0001006918
0.000595042
0.0001006918
0.0001006918
0.0001006918
0.0001006918
0.0001006918
0.0005951044
0.0001006919
0.0001006918
0.0001006918
0.0001006919
0.0001006919
0.0005951648
0.0001006919
0.0001006919
0.0001006919
0.0001006919
0.0001006919
0.0005952237
0.000100692
0.0001006919
0.0001006919
0.000100692
0.000100692
0.0005952822
0.000100692
0.0001006919
0.000100692
0.000100692
0.000100692
0.0005953408
0.000100692
0.000100692
0.000100692
0.000100692
0.0001006921
0.0005953999
0.0001006921
0.000100692
0.0001006921
0.0001006921
0.0001006921
0.0005954598
0.0001006921
0.0001006921
0.0001006921
0.0001006921
0.0001006922
0.0005955203
0.0001006922
0.0001006921
0.0001006922
0.0001006922
0.0001006922
0.0005955812
0.0001006922
0.0001006922
0.0001006922
0.0001006922
0.0001006923
0.0005956425
0.0001006923
0.0001006922
0.0001006923
0.0001006923
0.0001006923
0.0005957041
0.0001006924
0.0001006923
0.0001006923
0.0001006923
0.0001006924
0.0005957669
0.0001006924
0.0001006923
0.0001006924
0.0001006924
0.0001006924
0.0005958296
0.0001006925
0.0001006924
0.0001006924
0.0001006924
0.0001006925
0.0005958923
0.0001006925
0.0001006924
0.0001006925
0.0001006925
0.0001006925
0.000595956
0.0001006926
0.0001006925
0.0001006925
0.0001006925
0.0001006926
0.0005960163
0.0001006926
0.0001006925
0.0001006926
0.0001006926
0.0001006926
0.0005960666
0.0001006927
0.0001006926
0.0001006926
0.0001006927
0.0001006927
0.0005961055
0.0001006928
0.0001006926
0.0001006927
0.0001006927
0.0001006927
0.0005962895
0.0005954895
0.0005956571
0.0005957511
0.0005958168
0.0005963269
0.0001006917
0.0001006916
0.0001006917
0.0001006917
0.0001006917
0.0005954998
0.0001006917
0.0001006916
0.0001006917
0.0001006917
0.0001006917
0.0005956649
0.0001006917
0.0001006917
0.0001006917
0.0001006918
0.0001006918
0.00059576
0.0001006918
0.0001006917
0.0001006918
0.0001006918
0.0001006918
0.0005958235
0.0001006918
0.0001006918
0.0001006918
0.0001006918
0.0001006919
0.0005958824
0.0001006919
0.0001006918
0.0001006919
0.0001006919
0.0001006919
0.0005959398
0.0001006919
0.0001006919
0.0001006919
0.0001006919
0.000100692
0.0005959975
0.000100692
0.0001006919
0.0001006919
0.000100692
0.000100692
0.0005960557
0.000100692
0.000100692
0.000100692
0.000100692
0.000100692
0.000596114
0.0001006921
0.000100692
0.000100692
0.0001006921
0.0001006921
0.0005961729
0.0001006921
0.0001006921
0.0001006921
0.0001006921
0.0001006921
0.0005962322
0.0001006922
0.0001006921
0.0001006921
0.0001006922
0.0001006922
0.0005962916
0.0001006923
0.0001006922
0.0001006922
0.0001006922
0.0001006922
0.0005963518
0.0001006923
0.0001006922
0.0001006922
0.0001006923
0.0001006923
0.0005964126
0.0001006924
0.0001006923
0.0001006923
0.0001006923
0.0001006924
0.0005964734
0.0001006924
0.0001006923
0.0001006924
0.0001006924
0.0001006924
0.000596535
0.0001006925
0.0001006924
0.0001006924
0.0001006924
0.0001006925
0.000596597
0.0001006925
0.0001006924
0.0001006925
0.0001006925
0.0001006925
0.00059666
0.0001006926
0.0001006925
0.0001006925
0.0001006925
0.0001006926
0.0005967227
0.0001006927
0.0001006925
0.0001006926
0.0001006926
0.0001006926
0.0005967862
0.0001006927
0.0001006926
0.0001006926
0.0001006927
0.0001006927
0.0005968499
0.0001006928
0.0001006927
0.0001006927
0.0001006927
0.0001006928
0.0005958312
0.0001006929
0.0001006927
0.0001006927
0.0001006928
0.0001006928
0.0002085341
0.0002059051
0.0002059482
0.0002060275
0.0002061057
0.0002085351
0.0001007534
0.0001007557
0.0001007631
0.0001007692
0.0001007757
0.0002059095
0.0001007522
0.0001007505
0.0001007586
0.000100763
0.000100767
0.000205954
0.0001007525
0.0001007505
0.0001007511
0.0001007563
0.0001007603
0.0002060349
0.0001007527
0.0001007507
0.0001007511
0.0001007517
0.0001007565
0.0002061139
0.0001007529
0.0001007509
0.0001007512
0.0001007514
0.000100752
0.000206193
0.0001007531
0.000100751
0.0001007514
0.0001007516
0.0001007517
0.0002062714
0.0001007533
0.0001007512
0.0001007516
0.0001007518
0.0001007519
0.0002063498
0.0001007535
0.0001007514
0.0001007518
0.0001007519
0.0001007521
0.0002064273
0.0001007537
0.0001007516
0.0001007519
0.0001007521
0.0001007523
0.0002065047
0.000100754
0.0001007518
0.0001007521
0.0001007523
0.0001007525
0.0002065827
0.0001007542
0.000100752
0.0001007524
0.0001007526
0.0001007527
0.0002066617
0.0001007545
0.0001007523
0.0001007526
0.0001007528
0.0001007529
0.0002067404
0.0001007548
0.0001007525
0.0001007528
0.000100753
0.0001007531
0.0002068212
0.0001007551
0.0001007528
0.0001007531
0.0001007533
0.0001007534
0.000206902
0.0001007554
0.000100753
0.0001007533
0.0001007535
0.0001007537
0.0002069835
0.0001007557
0.0001007533
0.0001007536
0.0001007538
0.0001007539
0.0002070656
0.0001007561
0.0001007536
0.0001007539
0.0001007541
0.0001007542
0.0002071479
0.0001007564
0.0001007539
0.0001007542
0.0001007544
0.0001007545
0.0002072308
0.0001007568
0.0001007543
0.0001007545
0.0001007547
0.0001007548
0.0002073146
0.0001007572
0.0001007546
0.0001007549
0.0001007551
0.0001007552
0.0002073981
0.0001007576
0.0001007549
0.0001007552
0.0001007554
0.0001007555
0.000207485
0.0001007581
0.0001007553
0.0001007555
0.0001007557
0.0001007559
0.0002075863
0.0006357536
0.0001007556
0.0001007559
0.0001007561
0.0001007563
0.0003004152
0.0001843963
0.0001843819
0.0001006919
0.0003023697
0.0002909519
0.0002085337
0.0002059222
0.0001006919
0.000100692
0.0002906465
0.0002904884
0.0002059032
0.0002059333
0.000100692
0.0001006921
0.0002904564
0.0002905265
0.0002059466
0.0002060113
0.0001006921
0.0001006922
0.0002905061
0.0002905958
0.0002060256
0.0002060876
0.0001006922
0.0001006923
0.0002905818
0.0002061036
0.0001006922
0.0002088672
0.0002088678
0.0001006921
0.0002064805
0.0002064857
0.000100692
0.0002064682
0.0002064742
0.000100692
0.0002064373
0.0002064594
0.000100692
0.0002064433
0.0002064577
0.000100692
0.0002064406
0.0002064645
0.000100692
0.0002064493
0.0002064589
0.000100692
0.0002064376
0.0002064676
0.000100692
0.0002064383
0.0002064652
0.000100692
0.000206438
0.0002064664
0.000100692
0.0002064445
0.0002064603
0.000100692
0.0002064553
0.0002064524
0.000100692
0.0002064444
0.0002064542
0.000100692
0.0002064547
0.0002064864
0.000100692
0.0002064648
0.0002064989
0.000100692
0.0002088661
0.0002088685
0.0001006921
0.0001843937
0.0001843821
0.0001006919
0.0003004163
0.0002059328
0.0001006921
0.0001006921
0.0002906449
0.000290488
0.0002060113
0.0001006921
0.0001006922
0.0002904573
0.000290528
0.0002060877
0.0001006921
0.0001006923
0.0002905073
0.0002905975
0.0001006922
0.0002905828
0.000100692
0.0002059197
0.0001006921
0.0003023676
0.0002909491
0.000100692
0.0002059298
0.0001006922
0.0002906441
0.000290485
0.0001006921
0.000206007
0.0001006923
0.0002904557
0.0002905245
0.0001006922
0.0002060826
0.0001006924
0.0002905029
0.0002905885
0.0001006923
0.0002061594
0.0001006925
0.0002905707
0.0002906574
0.0001006924
0.000206237
0.0001006926
0.0002906392
0.0002907271
0.0001006925
0.0002063148
0.0001006928
0.0002907084
0.0002907993
0.0001006926
0.0002063926
0.0001006929
0.0002907803
0.0002908712
0.0001006927
0.0002064711
0.000100693
0.0002908509
0.0002909421
0.0001006929
0.0002065493
0.0001006932
0.0002909208
0.0002910135
0.000100693
0.0002066287
0.0001006933
0.0002909906
0.0002910857
0.0001006935
0.0002069521
0.0001006939
0.0002912738
0.0002913806
0.0001006936
0.0002070346
0.0001006941
0.0002913469
0.0002914561
0.0001006938
0.0002071177
0.0001006942
0.0002914199
0.0002915325
0.0001006939
0.0002072021
0.0001006944
0.0002914935
0.0002916091
0.000100694
0.000207287
0.0001006945
0.0002915677
0.0002916884
0.0001006947
0.0002077364
0.0001006952
0.0002919434
0.0001010796
0.000100788
0.0001418662
0.0001007327
0.0001395686
0.0001007324
0.0001393894
0.0003023665
0.0002909482
0.0002085347
0.000100692
0.0002059207
0.0001006921
0.0002906442
0.0002904851
0.0002059092
0.0001006921
0.0002059311
0.0001006922
0.0002904544
0.0002905234
0.0002059539
0.0001006921
0.0002060082
0.0001006923
0.0002905032
0.0002905876
0.0002060345
0.0001006922
0.0002060847
0.0001006924
0.0002905692
0.0002906572
0.0002061135
0.0001006923
0.0002061615
0.0001006925
0.0002906386
0.0002907283
0.0002061927
0.0001006924
0.0002062395
0.0001006926
0.0002907094
0.0002908004
0.0002062713
0.0001006925
0.0002063174
0.0001006928
0.0002907812
0.0002908722
0.0002063497
0.0001006926
0.0002063959
0.0001006929
0.0002908517
0.0002909431
0.0002064272
0.0001006927
0.0002064745
0.000100693
0.0002909216
0.0002910144
0.0002065046
0.0001006929
0.000206553
0.0001006932
0.0002909916
0.0002910866
0.0002065826
0.000100693
0.0002066322
0.0001006933
0.0002910618
0.0002911596
0.0002066615
0.0001006931
0.0002067124
0.0001006935
0.0002911323
0.0002912327
0.0002067406
0.0001006932
0.0002067928
0.0001006936
0.0002912035
0.0002913067
0.0002068203
0.0001006934
0.0002068743
0.0001006937
0.0002912753
0.0002913817
0.0002069011
0.0001006935
0.0002069562
0.0001006939
0.0002913477
0.0002914571
0.000206983
0.0001006936
0.0002070391
0.0001006941
0.0002914206
0.0002915334
0.0002070651
0.0001006938
0.0002071225
0.0001006942
0.0002914942
0.0002916101
0.0002071477
0.0001006939
0.0002072069
0.0001006944
0.0002915685
0.000291688
0.0002072306
0.0001006941
0.0002072913
0.0001006945
0.0002916438
0.0002917671
0.0002073138
0.0001006942
0.0002073772
0.0001006947
0.0002917208
0.0002918519
0.000207398
0.0001006944
0.0002074643
0.0001006949
0.0002918058
0.000291969
0.0002074839
0.0001006945
0.0002075595
0.000100695
0.0002919439
0.0001010793
0.0002075857
0.0001006947
0.0002077369
0.0001006952
0.0001007883
0.000100788
0.0001007885
0.0001007882
0.0001007884
0.0001007885
0.0001007882
0.0001007886
0.0001007883
0.0001007884
0.0001007884
0.0001007884
0.0001007886
0.0001007884
0.0001007882
0.0001007884
0.0001007869
0.0001007877
0.0002059231
0.0001006919
0.000100692
0.0003023703
0.0002909496
0.0001006931
0.0002067077
0.0001006935
0.000291061
0.0002911611
0.0001006932
0.0002067892
0.0001006936
0.0002911322
0.0002912311
0.0001006933
0.0002068703
0.0001006934
0.0002912021
0.0002913007
0.0001006942
0.0002073726
0.0001006947
0.0002916441
0.0002917684
0.0001006943
0.0002074603
0.0001006949
0.0002917224
0.0002918503
0.0001006945
0.0002075557
0.0001006944
0.000291806
0.0002919606
0.0001007309
0.0001397279
0.0001007319
0.0001446942
0.0001007436
0.0001397207
0.0001007499
0.0001446831
0.0001007869
0.0001007877
0.0001007343
0.0001393609
0.0001007329
0.0001393535
0.0001007881
0.0001007883
0.0001007883
0.0001007884
0.0001007882
0.0001007885
0.0001007885
0.0001007882
0.0001007884
0.0001007886
0.0001007885
0.0001007885
0.0001007886
0.0001007884
0.0001007881
0.000100788
0.000100788
0.0001418726
0.0001007309
0.0001397296
0.000100732
0.0001447004
0.0001007437
0.0001397191
0.0001007499
0.0001446818
0.0001007334
0.0001393639
0.000100739
0.0001393849
0.0001007399
0.0001394315
0.0001007336
0.0001393747
0.000100735
0.0001394222
0.0001007449
0.0001394616
0.0001007458
0.0001395129
0.0001007348
0.0001394519
0.000100737
0.0001395039
0.0001007511
0.0001395387
0.0001007515
0.0001395927
0.0001007363
0.0001395303
0.0001007389
0.0001395835
0.0001007572
0.0001396149
0.0001007567
0.0001396092
0.0001007526
0.0001395641
0.0001007431
0.0001393828
0.0001007432
0.0001393537
0.0001007563
0.0001393532
0.0001007563
0.0001393488
0.0001007432
0.0001393784
0.0001007457
0.0001394244
0.0001007619
0.0001393771
0.0001007608
0.0001394264
0.0001007454
0.0001394546
0.000100748
0.0001395059
0.0001007682
0.0001394569
0.0001007662
0.0001395097
0.0001007479
0.0001395324
0.0001007503
0.000139587
0.0001007744
0.0001395376
0.0001007716
0.0001395918
0.0001007502
0.0001396106
0.0001007526
0.0001396676
0.0001007805
0.0001396172
0.0001007769
0.0001396727
0.0001007526
0.000139689
0.0001007548
0.0001397478
0.0001007863
0.0001396972
0.0001007823
0.0001397527
0.0001007544
0.0001397677
0.0001007571
0.0001398284
0.0001007921
0.0001397766
0.0001007878
0.0001398328
0.0001007555
0.0001398469
0.0001007595
0.0001399094
0.0001007978
0.0001398557
0.000100762
0.0001399912
0.0001008036
0.0001399348
0.0001007986
0.0001399944
0.0001007572
0.0001400063
0.0001007643
0.0001400733
0.0001008091
0.0001400132
0.0001008037
0.0001400748
0.000100759
0.0001400868
0.0001007667
0.0001401557
0.0001008145
0.0001400923
0.0001008234
0.0001404113
0.0001007664
0.0001404276
0.0001008277
0.0001404794
0.0001007685
0.0001404978
0.0001007785
0.0001405764
0.0001008402
0.0001404915
0.0001008321
0.0001405609
0.0001007704
0.0001405819
0.0001007809
0.0001406624
0.0001008451
0.0001405724
0.0001008366
0.0001406427
0.0001007724
0.0001406666
0.0001007832
0.0001407491
0.0001008499
0.0001406538
0.0001008409
0.0001407252
0.0001007745
0.0001407521
0.0001007856
0.0001408364
0.0001008546
0.0001407359
0.0001007953
0.0001445278
0.0001410882
0.0001008726
0.0001797328
0.0001772108
0.0001705711
0.0001702945
0.0001706065
0.0001703781
0.0001712091
0.0001712075
0.0001706824
0.0001711292
0.0001708963
0.0001706454
0.0001711235
0.0001712887
0.0001709649
0.000170615
0.0001711023
0.0001711025
0.0001705448
0.0001709863
0.0001702643
0.0001702075
0.0001706126
0.0001703781
0.0001709925
0.0001710429
0.0001711645
0.0001712909
0.0001706378
0.0001704724
0.0001708059
0.0001711614
0.0001702441
0.000170337
0.0001707684
0.0001707828
0.0001707463
0.0001710459
0.0001795841
0.0001772053
0.0001562283
0.0001551331
0.0001560598
0.0001552326
0.00015619
0.0001551198
0.0001560474
0.0001551868
0.0001560275
0.0001552249
0.0001560806
0.000155185
0.0001560546
0.0001552298
0.0001552111
0.0001560878
0.0001559362
0.0001550943
0.0001550745
0.0001559883
0.0001559633
0.0001551562
0.000155117
0.0001560136
0.0001559885
0.0001551616
0.0001551453
0.0001560173
0.0001560978
0.0001552963
0.0001552533
0.0001561564
0.0001561658
0.0001553665
0.0001553215
0.0001562282
0.0001561895
0.0001553731
0.0001553498
0.0001562281
0.000156234
0.000155437
0.0001562998
0.0001553902
0.0001562566
0.0001554438
0.000155418
0.000156298
0.0001563023
0.0001555077
0.000155459
0.0001563714
0.000156324
0.0001555142
0.0001554863
0.0001563679
0.000156371
0.0001555786
0.0001564432
0.0001555279
0.0001007928
0.0001399135
0.0001007561
0.0001399205
0.0001565101
0.0001557217
0.0001556671
0.0001565877
0.000156529
0.0001557269
0.0001556935
0.0001565807
0.0001565804
0.000155794
0.0001557374
0.0001566605
0.0001565981
0.0001557986
0.0001557633
0.0001566524
0.0001566512
0.0001558668
0.0001567337
0.0001558082
0.0001568623
0.0001560545
0.0001568934
0.0001560328
0.0001007761
0.000140483
0.0001008345
0.0001404241
0.0001569518
0.000156164
0.0001561203
0.0001570174
0.0001572396
0.0001564699
0.0001573392
0.0001563978
0.0001008567
0.0001410779
0.0001007822
0.0001411071
0.0001576225
0.0001568181
0.0001567456
0.0001577321
0.0001693029
0.000158081
0.0001608268
0.0001629086
0.0001691954
0.0001578764
0.0001603528
0.0001628484
0.0001751001
0.0001723806
0.0001708662
0.0001707263
0.0001708567
0.0001706395
0.0001710525
0.0001710276
0.0001704012
0.0001703843
0.0001707396
0.0001707478
0.000170663
0.0001703533
0.0001710147
0.0001710852
0.0001707771
0.0001707468
0.0001703157
0.000170534
0.0001395694
0.0001007324
0.0001394049
0.0001007327
0.0001393749
0.000100733
0.0001393696
0.0001007343
0.0001401552
0.0001007612
0.0001401665
0.0001008086
0.0001402314
0.000140164
0.0001007688
0.0001008199
0.0001402298
0.0001402481
0.0001008137
0.0001007623
0.0001403357
0.0001402508
0.0001007715
0.0001008254
0.00014033
0.0001403315
0.0001008185
0.0001007641
0.0001404119
0.0001008299
0.0001403306
0.0001007732
0.000140808
0.0001007772
0.0001408518
0.0001008455
0.0001409232
0.0001408318
0.0001007879
0.0001008591
0.0001408838
0.0001409178
0.0001008496
0.0001007781
0.0001410265
0.0001409003
0.0001007905
0.0001008642
0.0001409882
0.0001410264
0.000100854
0.0001007802
0.0001411121
0.0001008676
0.000141
0.0001007919
0.00017061
0.0001713415
0.0001708849
0.0001707321
0.0001706711
0.0001704804
0.0001708136
0.0001707863
0.0001708559
0.0001706064
0.0001707618
0.0001709303
0.0001702242
0.0001702489
0.0001710112
0.0001710238
0.0001707346
0.0001709192
0.0001746595
0.0001715381
0.0001692008
0.0001581365
0.0001629688
0.0001608248
0.0001691384
0.0001578407
0.000162817
0.0001603289
0.0001566725
0.0001563097
0.0001578451
0.0001555378
0.0001565881
0.0001561198
0.0001576233
0.000155437
0.0001560573
0.0001552554
0.0001552163
0.0001561093
0.0001559341
0.0001551182
0.0001550796
0.0001559774
0.0001559539
0.0001551248
0.0001551105
0.0001559795
0.0001559946
0.0001551881
0.0001551499
0.0001560447
0.0001560619
0.0001552572
0.0001552185
0.000156114
0.0001560865
0.0001552643
0.0001552447
0.0001561171
0.0001561294