/*--------------------------------*- C++ -*----------------------------------*\
  =========                 |
  \\      /  F ield         | OpenFOAM: The Open Source CFD Toolbox
   \\    /   O peration     | Website:  https://openfoam.org
    \\  /    A nd           | Version:  7
     \\/     M anipulation  |
\*---------------------------------------------------------------------------*/
FoamFile
{
    version     2.0;
    format      ascii;
    class       volScalarField;
    location    "0.07";
    object      p;
}
// * * * * * * * * * * * * * * * * * * * * * * * * * * * * * * * * * * * * * //

dimensions      [0 2 -2 0 0 0 0];

internalField   nonuniform List<scalar> 
73374
(
1.561518
1.575423
1.582466
1.5492
1.536897
1.504902
1.497106
1.462761
1.426408
1.407073
1.397861
1.567254
1.612338
1.613559
1.64502
1.649107
1.709724
1.687906
1.723093
1.751894
1.726696
1.697234
1.545584
1.495667
1.502639
1.46985
1.455333
1.432502
1.420049
1.423953
1.415887
1.405425
1.393095
1.543332
1.574471
1.583734
1.597638
1.593983
1.588019
1.566169
1.560526
1.540443
1.526804
1.508466
1.539899
1.52365
1.517852
1.513536
1.504898
1.496385
1.48549
1.480585
1.468881
1.459753
1.448229
1.535982
1.545041
1.542192
1.549028
1.54828
1.541821
1.53916
1.531739
1.523169
1.512638
1.498901
1.531959
1.528858
1.524388
1.52378
1.522941
1.517268
1.516072
1.510704
1.50599
1.497759
1.486324
1.527126
1.528116
1.52472
1.527208
1.530065
1.5265
1.529003
1.525686
1.523217
1.516959
1.505599
1.522118
1.519893
1.518418
1.519832
1.52117
1.521399
1.524662
1.525344
1.528797
1.526476
1.521239
1.515865
1.513791
1.513283
1.515075
1.517538
1.518961
1.523963
1.52646
1.532821
1.534635
1.529202
1.50863
1.505257
1.505205
1.506706
1.510572
1.513219
1.52301
1.529315
1.54968
1.556725
1.58695
1.499975
1.495342
1.495486
1.496474
1.50057
1.50301
1.513542
1.52116
1.545125
1.558019
1.594492
1.490093
1.484211
1.484423
1.484003
1.489368
1.489239
1.505325
1.51133
1.549764
1.577124
1.662973
1.478708
1.471436
1.471215
1.469298
1.472871
1.471039
1.484464
1.489564
1.536934
1.552663
1.643531
1.466074
1.458002
1.457587
1.452233
1.456101
1.443988
1.46107
1.435961
1.494218
1.4677
1.513453
1.452543
1.444475
1.442663
1.435344
1.433309
1.41909
1.415228
1.394837
1.384957
1.375554
1.356932
1.439448
1.431537
1.429218
1.418755
1.416266
1.393624
1.390042
1.351943
1.336974
1.315739
1.261275
1.427471
1.420077
1.416353
1.404773
1.397528
1.373069
1.3559
1.312093
1.273213
1.238881
1.136576
1.416611
1.409846
1.405528
1.392047
1.384905
1.354201
1.338503
1.278578
1.23038
1.13976
0.9967907
1.407058
1.127145
0.9112015
1.795779
1.728195
1.691898
1.661999
1.634382
1.626634
1.619849
1.632601
1.621461
1.609126
1.518472
1.45991
1.504624
1.387689
1.374817
1.380567
1.373243
1.377057
1.380383
1.362078
1.373865
1.528924
1.518282
1.567258
1.58329
1.602617
1.565072
1.605575
1.562027
1.567058
1.553199
1.562628
1.535435
1.497983
1.495887
1.461196
1.443904
1.435225
1.425125
1.425113
1.428943
1.418784
1.416511
1.545175
1.553511
1.567701
1.570653
1.568528
1.565493
1.561529
1.555877
1.546472
1.530657
1.516658
1.532809
1.524445
1.516921
1.503637
1.49252
1.487984
1.478811
1.475875
1.469443
1.458311
1.448208
1.540089
1.544465
1.545623
1.550922
1.552334
1.550069
1.544768
1.538242
1.530456
1.517828
1.504637
1.531168
1.530214
1.52754
1.528673
1.529353
1.526713
1.521423
1.513806
1.507431
1.498066
1.48702
1.528309
1.529396
1.52942
1.53277
1.534921
1.534536
1.533682
1.530829
1.52689
1.520556
1.509087
1.521117
1.520564
1.52
1.521128
1.521684
1.52321
1.526181
1.526429
1.529754
1.527728
1.522625
1.514382
1.514632
1.514521
1.516779
1.518646
1.521435
1.525213
1.530016
1.533513
1.54137
1.533256
1.505841
1.505712
1.505676
1.507159
1.510596
1.513114
1.522567
1.527326
1.550295
1.555018
1.582728
1.495772
1.495791
1.495763
1.497246
1.500344
1.504806
1.512721
1.527255
1.544319
1.5701
1.590422
1.484861
1.484499
1.484542
1.484077
1.488957
1.488209
1.504539
1.507384
1.55038
1.567931
1.688911
1.472382
1.471934
1.471186
1.469953
1.471797
1.472866
1.481564
1.498909
1.539352
1.605959
1.641799
1.459815
1.458651
1.457717
1.452651
1.455875
1.443735
1.462107
1.432976
1.511524
1.447244
1.458417
1.446709
1.445278
1.442657
1.435985
1.432164
1.42014
1.409849
1.39924
1.35104
1.362685
1.390717
1.434413
1.432526
1.429411
1.41953
1.415748
1.394748
1.38819
1.353977
1.327655
1.280441
1.267407
1.423048
1.421137
1.416541
1.405661
1.396518
1.374434
1.351915
1.314274
1.253672
1.169918
1.13243
1.412941
1.41099
1.405971
1.393439
1.384701
1.357809
1.339132
1.286717
1.236365
1.145444
0.8693025
0.866329
1.721568
1.814278
1.785106
1.777504
1.790609
1.779591
1.785763
1.93832
1.823802
1.825971
1.543017
1.525569
1.459864
1.418401
1.396395
1.364673
1.357875
1.318435
1.180115
1.224295
1.191493
1.550304
1.605013
1.670586
1.700938
1.727251
1.759793
1.769886
1.806104
1.796231
1.801512
1.767709
1.523941
1.505559
1.469021
1.440193
1.407926
1.396649
1.37747
1.396939
1.370063
1.373943
1.349091
1.571232
1.581307
1.605488
1.618836
1.627493
1.630897
1.616136
1.601714
1.571669
1.555897
1.534037
1.524322
1.525246
1.50436
1.498205
1.499652
1.486655
1.477376
1.464241
1.451539
1.445098
1.434884
1.54124
1.549944
1.544188
1.548982
1.55082
1.541417
1.541523
1.534263
1.524256
1.518758
1.502552
1.525685
1.529056
1.519481
1.520706
1.516985
1.512928
1.510287
1.506539
1.501539
1.497774
1.483298
1.524656
1.529259
1.52267
1.529196
1.5255
1.526526
1.526291
1.525986
1.522578
1.518613
1.506296
1.518126
1.519204
1.517093
1.519147
1.518835
1.520104
1.523021
1.524144
1.528001
1.526904
1.522415
1.512259
1.513705
1.512949
1.515151
1.516423
1.518914
1.52304
1.527611
1.532576
1.536363
1.530021
1.504511
1.505154
1.505414
1.506405
1.510144
1.511928
1.522187
1.526593
1.551658
1.556749
1.588027
1.494186
1.495062
1.49553
1.496599
1.500328
1.503759
1.514047
1.523904
1.547031
1.56321
1.592369
1.484225
1.484252
1.484992
1.483772
1.489728
1.487374
1.507581
1.508087
1.554607
1.575574
1.685689
1.471459
1.4714
1.471349
1.469445
1.472373
1.471371
1.482694
1.494607
1.542747
1.592558
1.647671
1.45958
1.458533
1.458311
1.452461
1.456785
1.443264
1.463431
1.432024
1.51516
1.431305
1.450666
1.446643
1.445122
1.443138
1.435618
1.432777
1.418657
1.41106
1.393178
1.352819
1.321196
1.404926
1.434876
1.432625
1.430168
1.419384
1.416723
1.394099
1.389885
1.352369
1.332136
1.274086
1.267766
1.423805
1.421283
1.417246
1.405357
1.397148
1.372981
1.352883
1.30901
1.255377
1.150669
1.134447
1.414221
1.411366
1.406908
1.393409
1.385786
1.357977
1.340833
1.285829
1.238527
1.139512
0.8575736
0.8600232
1.713425
1.768892
1.717774
2.048014
1.715641
1.985967
1.7425
1.734774
1.84421
1.691831
1.539116
1.413415
1.409502
1.293009
1.167311
1.322306
1.159659
1.315479
1.323209
1.216629
1.313899
1.545664
1.573429
1.643272
1.694879
1.711129
1.739399
1.746128
1.80295
1.769904
1.79236
1.748753
1.514886
1.48235
1.45561
1.418315
1.370046
1.366884
1.335892
1.357193
1.353484
1.357399
1.339104
1.559588
1.566709
1.58627
1.612593
1.605748
1.624672
1.594353
1.597135
1.579835
1.562908
1.543279
1.518846
1.516423
1.496608
1.504331
1.476302
1.485754
1.466134
1.471475
1.455075
1.442927
1.435269
1.54465
1.552442
1.552251
1.561698
1.558961
1.564995
1.558239
1.550608
1.541371
1.526713
1.51411
1.527395
1.528602
1.524922
1.529086
1.534511
1.529041
1.528963
1.513965
1.511136
1.496481
1.488033
1.527787
1.53069
1.532204
1.535946
1.538963
1.538853
1.538668
1.533707
1.530391
1.522369
1.512118
1.520066
1.520452
1.520123
1.521764
1.522044
1.524101
1.527117
1.526673
1.530538
1.527956
1.523886
1.513181
1.514511
1.514836
1.517361
1.519229
1.522818
1.526212
1.531221
1.5343
1.541712
1.534959
1.504938
1.505507
1.505797
1.507281
1.510625
1.513008
1.522264
1.526577
1.550668
1.555635
1.579276
1.494918
1.495571
1.495654
1.497592
1.500128
1.505528
1.51249
1.528011
1.544775
1.568302
1.58709
1.484404
1.484412
1.484629
1.484117
1.488856
1.487697
1.504184
1.506106
1.550779
1.565907
1.69898
1.472037
1.471896
1.471009
1.470269
1.471211
1.473177
1.481065
1.497904
1.544043
1.603058
1.649528
1.459863
1.458845
1.457952
1.452921
1.455866
1.443641
1.462564
1.432247
1.519314
1.438679
1.445846
1.446834
1.445455
1.442637
1.436265
1.43124
1.419819
1.406845
1.395453
1.342439
1.31931
1.417684
1.434936
1.432904
1.429777
1.420017
1.415575
1.395079
1.387323
1.353115
1.324725
1.275298
1.26435
1.423783
1.421553
1.416811
1.406062
1.395718
1.374277
1.349105
1.310992
1.24871
1.149342
1.130403
1.414035
1.411593
1.40664
1.394323
1.385037
1.359413
1.340237
1.28989
1.240262
1.139455
0.8530384
0.8513558
1.69389
1.786739
2.031639
1.829992
2.12415
1.730936
1.886527
2.019716
1.674544
1.879359
1.533866
1.405492
1.449889
1.178602
1.405342
1.09912
1.292681
1.212519
1.115271
1.303658
1.166331
1.575482
1.593478
1.690854
1.725678
1.768223
1.796981
1.82072
1.852219
1.832174
1.793367
1.77329
1.513434
1.476867
1.461806
1.39092
1.38701
1.37077
1.347482
1.362355
1.334288
1.33547
1.323232
1.581235
1.57524
1.617837
1.618929
1.633696
1.620003
1.602079
1.588949
1.556997
1.544567
1.533718
1.517167
1.517435
1.497917
1.482351
1.484864
1.463593
1.455492
1.446751
1.43282
1.425768
1.421596
1.540528
1.555423
1.545319
1.560141
1.561099
1.559911
1.538014
1.542802
1.526891
1.51959
1.503475
1.524162
1.53134
1.51758
1.534872
1.514778
1.51639
1.505388
1.508266
1.500909
1.499383
1.480264
1.525645
1.531996
1.522361
1.535783
1.524451
1.534927
1.526019
1.530653
1.524566
1.520936
1.507746
1.519764
1.520316
1.517151
1.520152
1.518187
1.521787
1.522241
1.525253
1.529328
1.527928
1.522611
1.513092
1.514339
1.513032
1.516539
1.516322
1.521258
1.523268
1.530352
1.533678
1.53951
1.532608
1.506667
1.506247
1.506245
1.507074
1.510063
1.511995
1.521329
1.525386
1.551205
1.555797
1.581194
1.493321
1.495047
1.494766
1.497193
1.499631
1.505026
1.512553
1.527151
1.545787
1.56488
1.585942
1.485563
1.48495
1.485413
1.484163
1.489285
1.487179
1.504718
1.50451
1.552038
1.566197
1.702797
1.469982
1.47094
1.470043
1.46975
1.471187
1.472506
1.481652
1.496256
1.544861
1.600955
1.651433
1.459923
1.458961
1.458241
1.452894
1.456303
1.44328
1.463027
1.430804
1.518686
1.435737
1.444929
1.446267
1.445054
1.442478
1.435979
1.431487
1.419187
1.407651
1.392868
1.343884
1.312784
1.410686
1.43525
1.433044
1.430147
1.42002
1.416086
1.394861
1.388389
1.352115
1.329565
1.266847
1.26276
1.423973
1.421584
1.417104
1.405992
1.396138
1.373904
1.349888
1.310148
1.250232
1.150397
1.132892
1.414707
1.411907
1.4072
1.394404
1.385615
1.359464
1.341065
1.289871
1.241165
1.136308
0.8526146
0.8479205
1.67028
1.777004
1.795673
2.160743
1.682478
2.075752
1.709713
1.759659
1.744353
1.638027
1.530707
1.407011
1.392132
1.22355
1.051231
1.345838
1.045414
1.331779
1.233113
1.316161
1.28745
1.563432
1.581902
1.684648
1.744835
1.792272
1.812688
1.821031
1.823238
1.830041
1.767482
1.771095
1.501182
1.463493
1.434883
1.375947
1.35956
1.341292
1.318571
1.345472
1.336972
1.335854
1.316979
1.574334
1.576072
1.609058
1.626632
1.612989
1.602198
1.596408
1.599025
1.572381
1.562103
1.54602
1.513486
1.511266
1.491405
1.495547
1.48194
1.469603
1.490362
1.464679
1.447584
1.439308
1.440285
1.545571
1.556229
1.550508
1.559861
1.569783
1.562594
1.568405
1.549016
1.545711
1.522636
1.518824
1.525265
1.525824
1.524557
1.523102
1.540617
1.518256
1.537077
1.510096
1.515657
1.494184
1.492552
1.523882
1.525227
1.529054
1.52466
1.539287
1.531774
1.540919
1.530173
1.531174
1.52062
1.513234
1.521111
1.520366
1.519535
1.519688
1.52257
1.521984
1.526935
1.525503
1.532047
1.527156
1.524458
1.510948
1.512713
1.513635
1.515325
1.518957
1.520658
1.526025
1.530342
1.534575
1.539564
1.533426
1.50504
1.505191
1.505891
1.506713
1.510712
1.51215
1.521942
1.525435
1.551559
1.555871
1.581994
1.494708
1.494938
1.495408
1.497296
1.499985
1.50526
1.512681
1.527395
1.545888
1.564982
1.586699
1.484599
1.484272
1.484785
1.484035
1.489057
1.487349
1.504536
1.504752
1.552763
1.567105
1.701213
1.472241
1.471862
1.470986
1.470281
1.471178
1.472909
1.481432
1.496344
1.545052
1.599093
1.650731
1.460195
1.458922
1.458285
1.452992
1.456063
1.443343
1.462702
1.430415
1.519947
1.43658
1.444922
1.44704
1.445493
1.442682
1.436334
1.431211
1.419762
1.406738
1.394276
1.340987
1.30906
1.421837
1.4352
1.432867
1.429988
1.419954
1.415482
1.394469
1.386895
1.349283
1.327213
1.25544
1.260277
1.424215
1.42161
1.417086
1.4061
1.396043
1.37435
1.350091
1.31167
1.253085
1.157184
1.131347
1.414257
1.411428
1.406894
1.394095
1.385067
1.358669
1.339435
1.286874
1.23615
1.135221
0.8531022
1.405947
0.8486129
1.665425
1.792259
2.090689
1.839835
2.156928
1.796797
1.819951
1.986597
1.656137
1.877834
1.545638
1.402548
1.428962
1.140258
1.41357
1.096954
1.342323
1.318425
1.165098
1.312601
1.171547
1.58719
1.600633
1.705395
1.744583
1.791622
1.809235
1.839791
1.821249
1.823105
1.726688
1.771016
1.518324
1.472558
1.462312
1.378365
1.383246
1.350881
1.355148
1.350579
1.341239
1.341182
1.331567
1.577975
1.578378
1.618506
1.604056
1.627674
1.601399
1.601869
1.576669
1.557408
1.557864
1.516211
1.520577
1.51531
1.497401
1.481097
1.483263
1.452859
1.456335
1.438206
1.430234
1.427312
1.411549
1.536224
1.558442
1.547558
1.563413
1.572428
1.557361
1.54831
1.548452
1.530183
1.525891
1.504336
1.530035
1.534072
1.519489
1.537472
1.520448
1.532087
1.509436
1.526954
1.501827
1.503485
1.478915
1.529306
1.533609
1.528762
1.537844
1.529253
1.537491
1.530595
1.535731
1.527049
1.524396
1.509244
1.527054
1.527058
1.520891
1.523942
1.52108
1.524652
1.524762
1.529928
1.530031
1.530117
1.522502
1.51628
1.514611
1.514603
1.517954
1.51792
1.52268
1.524534
1.532613
1.534686
1.543075
1.533974
1.513159
1.508328
1.509216
1.508645
1.511605
1.513424
1.522476
1.527277
1.551172
1.556097
1.580558
1.489435
1.495668
1.493398
1.497959
1.499271
1.505643
1.512455
1.528118
1.544842
1.569137
1.588166
1.488637
1.48594
1.486934
1.484959
1.489503
1.487986
1.504537
1.506596
1.550878
1.566588
1.696477
1.463163
1.469965
1.466667
1.469743
1.469867
1.473063
1.480249
1.498057
1.542917
1.602076
1.650687
1.458871
1.459298
1.457931
1.453303
1.455604
1.443704
1.461704
1.431754
1.51911
1.437171
1.441219
1.444266
1.444301
1.441124
1.436021
1.430791
1.420206
1.407328
1.396945
1.3422
1.319211
1.405847
1.434846
1.43282
1.429703
1.420047
1.415044
1.394595
1.38615
1.34902
1.325097
1.252183
1.256353
1.42301
1.421153
1.416603
1.406249
1.396095
1.375605
1.351194
1.316127
1.257154
1.172401
1.102776
1.414366
1.411523
1.406908
1.394188
1.384725
1.35865
1.338323
1.285494
1.231543
1.137192
0.825549
1.407215
1.40378
1.398176
1.386364
0.8543123
1.661596
1.732213
1.736058
1.908407
1.706718
1.741043
1.689891
1.67915
1.693866
1.760813
1.546509
1.426281
1.422475
1.29711
1.229836
1.317965
1.285142
1.361912
1.335161
1.382013
1.267186
1.569392
1.592994
1.675558
1.718289
1.759351
1.758518
1.806681
1.760923
1.773317
1.727572
1.763882
1.506904
1.472341
1.440902
1.388055
1.361991
1.35113
1.335014
1.341744
1.339272
1.350717
1.331924
1.562893
1.581194
1.609881
1.621372
1.614061
1.599644
1.585713
1.588487
1.572586
1.567142
1.546621
1.517574
1.50914
1.490313
1.493205
1.48059
1.465636
1.46788
1.466648
1.459775
1.445448
1.438443
1.537767
1.553401
1.544098
1.563846
1.568411
1.563132
1.558155
1.550142
1.540893
1.52833
1.516197
1.524192
1.527003
1.517873
1.528206
1.521854
1.51845
1.516693
1.510223
1.503598
1.494175
1.485831
1.520082
1.530646
1.521948
1.533202
1.528841
1.527857
1.533737
1.530772
1.528108
1.52107
1.510257
1.533636
1.525336
1.521359
1.522308
1.522031
1.522313
1.525856
1.526361
1.530721
1.528032
1.522769
1.504154
1.510879
1.511729
1.515548
1.517446
1.519838
1.524675
1.528977
1.533788
1.537578
1.530359
1.508365
1.504311
1.506508
1.506781
1.511123
1.512785
1.523077
1.52756
1.552072
1.557156
1.588164
1.490786
1.493892
1.494973
1.49704
1.50003
1.504355
1.513984
1.524492
1.546461
1.563622
1.591686
1.48233
1.483281
1.484623
1.483828
1.489669
1.487823
1.507336
1.508719
1.554513
1.576077
1.683985
1.473449
1.471573
1.471075
1.469903
1.471485
1.471847
1.48147
1.494633
1.540601
1.591155
1.643004
1.460157
1.458289
1.458635
1.452708
1.456114
1.443525
1.461472
1.431349
1.512116
1.440351
1.443301
1.447334
1.444923
1.44297
1.435959
1.432263
1.419338
1.410916
1.393787
1.352207
1.31937
1.398709
1.435801
1.431792
1.430124
1.419179
1.41532
1.39342
1.386403
1.346547
1.328467
1.254793
1.257667
1.425419
1.421122
1.417579
1.405682
1.397552
1.374567
1.355364
1.314565
1.268134
1.171344
1.107182
1.414081
1.409928
1.406955
1.392563
1.384813
1.355781
1.337504
1.279787
1.227936
1.139684
0.8168422
1.405187
1.401645
1.398224
1.38491
1.374902
1.35228
0.8652815
1.696489
1.820959
1.914784
1.781162
1.970619
1.78787
1.770264
1.786241
2.298208
1.720866
1.550226
1.477521
1.472992
1.293525
1.384105
1.247931
1.362827
1.327237
1.352022
1.297234
1.355706
1.576751
1.579701
1.703651
1.708248
1.771291
1.775957
1.811608
1.748826
1.765864
1.601668
1.656146
1.527213
1.491854
1.463122
1.39904
1.388128
1.36181
1.353843
1.356839
1.362499
1.366582
1.353528
1.546104
1.587666
1.607157
1.619089
1.63111
1.604445
1.608646
1.592821
1.58172
1.562827
1.551319
1.515616
1.519055
1.497702
1.498673
1.493401
1.465091
1.473878
1.46585
1.45824
1.438748
1.432389
1.534977
1.554918
1.548697
1.56283
1.564804
1.550989
1.550706
1.546698
1.536297
1.524975
1.512158
1.533132
1.535353
1.529057
1.533517
1.531763
1.524325
1.519359
1.520975
1.50711
1.498322
1.483241
1.521412
1.529445
1.531278
1.535263
1.536322
1.534998
1.534913
1.534978
1.529079
1.52446
1.510565
1.529291
1.542927
1.52515
1.528102
1.523272
1.525614
1.527276
1.529738
1.53035
1.530116
1.522185
1.50134
1.507218
1.516567
1.517255
1.519276
1.522559
1.525748
1.531943
1.53456
1.543325
1.533172
1.489345
1.507839
1.513356
1.508928
1.513314
1.514331
1.523732
1.528494
1.551325
1.555833
1.583911
1.479661
1.493485
1.492075
1.498494
1.499095
1.505475
1.512875
1.527303
1.543985
1.571418
1.591497
1.498783
1.484582
1.489183
1.48487
1.490247
1.488726
1.505257
1.508254
1.549713
1.56908
1.685874
1.462284
1.469073
1.462626
1.469813
1.469259
1.472906
1.480045
1.498851
1.535576
1.604907
1.648601
1.461701
1.459458
1.457195
1.453282
1.455288
1.444012
1.459949
1.432263
1.505581
1.439162
1.439363
1.445405
1.443425
1.440373
1.435761
1.431396
1.420614
1.410874
1.399526
1.356162
1.353671
1.392439
1.431833
1.431131
1.429322
1.419309
1.414761
1.394145
1.385886
1.348638
1.328669
1.255875
1.259345
1.419966
1.419823
1.4163
1.405942
1.397268
1.376957
1.355976
1.323578
1.266805
1.203055
1.122404
1.410403
1.409172
1.406429
1.392744
1.384251
1.356686
1.336709
1.282116
1.228867
1.135649
0.8419505
1.410244
1.402126
1.399054
1.385556
1.375178
1.355407
1.332131
1.315423
0.8826597
1.770316
1.806868
1.817185
1.808145
1.778616
1.743216
1.725305
1.713569
1.784364
1.996444
1.577225
1.522702
1.47697
1.420609
1.373282
1.34541
1.362155
1.390027
1.390337
1.419997
1.399087
1.563711
1.599937
1.641179
1.689976
1.716927
1.735177
1.768802
1.704712
1.722244
1.615388
1.692484
1.525885
1.480255
1.459401
1.409986
1.381684
1.364926
1.350521
1.345232
1.359271
1.372448
1.35817
1.525961
1.59175
1.59905
1.621883
1.625122
1.604102
1.593445
1.586866
1.581454
1.565012
1.548448
1.499197
1.507246
1.502087
1.505315
1.49846
1.475246
1.478019
1.474803
1.465677
1.446492
1.436341
1.492604
1.551172
1.544612
1.557364
1.559893
1.55341
1.54757
1.543236
1.535363
1.523765
1.510665
1.480365
1.526864
1.521227
1.526926
1.523757
1.520357
1.516687
1.515122
1.506068
1.497985
1.484173
1.470208
1.528205
1.526146
1.53232
1.532173
1.530558
1.530692
1.531165
1.526484
1.521076
1.508384
1.469254
1.525009
1.523019
1.523517
1.523159
1.523777
1.526094
1.527872
1.529768
1.528359
1.520487
1.522391
1.508692
1.514993
1.515789
1.518553
1.52032
1.524964
1.528375
1.533682
1.536732
1.528727
1.480648
1.497432
1.51094
1.506523
1.512847
1.514112
1.524002
1.530309
1.550364
1.556927
1.587882
1.462781
1.491156
1.495952
1.496685
1.500074
1.503579
1.513558
1.521571
1.545202
1.55884
1.594684
1.445252
1.476093
1.490576
1.483189
1.490763
1.489643
1.505316
1.51167
1.5496
1.576717
1.6613
1.429656
1.469718
1.469282
1.469397
1.471424
1.471025
1.483511
1.487971
1.536154
1.543066
1.630916
1.42154
1.456675
1.459603
1.452322
1.45571
1.444167
1.45882
1.434619
1.490601
1.461214
1.479344
1.409312
1.440289
1.443484
1.435091
1.433085
1.419085
1.416371
1.391394
1.38629
1.371785
1.363142
1.406657
1.426661
1.431063
1.417957
1.41504
1.393234
1.385322
1.3497
1.326283
1.262671
1.262539
1.410387
1.418399
1.418012
1.405079
1.398878
1.375898
1.362285
1.324244
1.29947
1.228889
1.102994
1.38547
1.404872
1.407954
1.390486
1.384566
1.352003
1.335576
1.271433
1.214319
1.113482
0.8862292
1.364295
1.393141
1.400978
1.383003
1.376246
1.351939
1.334582
1.299626
1.27536
1.117272
0.9491612
1.601319
1.674434
1.651085
1.617267
1.677308
1.539202
1.562647
1.672015
1.74645
1.514222
1.545254
1.551624
1.575201
1.726659
1.748935
1.5582
1.524147
1.54943
1.608314
1.745974
1.796806
1.53786
1.536108
1.557117
1.580739
1.697488
1.897694
1.543859
1.550451
1.542594
1.568752
1.661935
1.93847
1.53617
1.548184
1.5264
1.553036
1.658914
1.914579
1.533949
1.541306
1.505032
1.544635
1.635729
1.861356
1.517915
1.526851
1.48005
1.534642
1.609296
1.797824
1.496054
1.521207
1.458537
1.518975
1.587025
1.760115
1.480548
1.507165
1.443083
1.506105
1.571717
1.729171
1.468439
1.495078
1.441283
1.600592
1.625623
1.516571
1.50493
1.58727
1.618495
1.49672
1.589724
1.562533
1.509594
1.534677
1.643809
1.553294
1.478993
1.575994
1.593659
1.487289
1.513973
1.56115
1.55355
1.492624
1.582254
1.593999
1.498797
1.554504
1.602751
1.562723
1.486292
1.571511
1.584458
1.485829
1.533978
1.569452
1.550266
1.48975
1.571646
1.58427
1.488538
1.533486
1.581284
1.543882
1.484423
1.565298
1.576473
1.482101
1.521988
1.565511
1.537853
1.481961
1.561668
1.571879
1.479295
1.517219
1.563558
1.531271
1.477097
1.555541
1.564137
1.474249
1.509794
1.555038
1.524124
1.471945
1.549058
1.55621
1.469074
1.502898
1.548095
1.51599
1.465311
1.541184
1.546665
1.462649
1.494376
1.539332
1.50649
1.45706
1.531934
1.535511
1.454737
1.484523
1.529507
1.495853
1.447618
1.52143
1.523211
1.445977
1.473552
1.518983
1.483921
1.436701
1.509692
1.509558
1.435393
1.46131
1.506261
1.47148
1.425012
1.496592
1.49515
1.424084
1.448881
1.49307
1.459005
1.86404
1.387981
1.480641
1.836988
1.383148
1.413135
1.483446
1.480354
1.412493
1.436403
1.479414
1.446425
1.296696
1.36412
1.321531
1.401928
1.470961
1.46629
1.401563
1.42451
1.46618
1.434268
1.17078
1.244257
1.215595
1.392068
1.459448
1.452901
1.391895
1.41365
1.454074
1.423038
0.996703
1.098312
1.009268
1.383716
1.448984
1.440386
1.383731
1.404055
1.442997
1.4132
0.9405522
0.5456816
0.8744389
0.8262766
0.4301105
1.376842
1.377368
1.395899
1.696382
1.593358
1.670342
1.846447
1.612435
1.62042
1.84198
1.3906
1.444052
1.839847
1.389605
0.7922217
0.415416
0.8581089
0.7966173
0.3892063
1.732066
1.617047
1.704675
1.79173
1.640324
1.665165
1.836317
1.392797
1.446583
1.833828
1.381257
0.7840711
0.3984575
0.85412
0.7827004
0.3907818
1.790268
1.640122
1.716004
1.82211
1.642407
1.678393
1.835821
1.38891
1.442928
1.838324
1.379897
0.7788004
0.3917484
0.8494729
0.7748865
0.386311
1.815165
1.632042
1.719314
1.897952
1.640357
1.684585
1.83823
1.387264
1.443148
1.841433
1.374898
0.7779864
0.3784959
0.8548901
0.773564
0.3787126
1.838169
1.642283
1.699985
1.854203
1.641977
1.707058
1.840946
1.38604
1.44163
1.837039
1.373038
0.7809346
0.3711847
0.8382236
0.7763223
0.3875281
1.81409
1.648836
1.69992
1.82072
1.63913
1.734136
1.836503
1.380103
1.442591
1.833954
1.383049
0.7846184
0.3934085
0.8131008
0.7859809
0.3992607
1.801909
1.650996
1.677589
1.789981
1.637096
1.707526
1.831943
1.377511
1.445829
1.832139
1.38565
0.7914765
0.4048797
0.8314408
0.7948189
0.3982709
1.783267
1.644547
1.690193
1.734457
1.619544
1.666708
1.836012
1.382047
1.454318
1.833604
1.382093
0.803649
0.3985416
0.8706373
0.8022702
0.421911
1.710694
1.641588
1.718637
1.790627
1.666359
1.731426
1.466111
1.557375
1.650635
1.535436
1.562332
1.812871
1.581556
1.603184
1.83233
1.564994
1.590909
1.806012
1.607845
1.556789
1.784165
1.617307
1.704608
1.812889
1.591101
1.503212
1.577807
1.708818
1.667426
1.488494
1.500992
1.654615
1.467178
1.540589
1.64324
1.493808
1.517415
1.482068
1.53515
1.508415
1.578749
1.622719
1.478453
1.610383
1.541096
1.554934
1.580759
1.512707
1.578101
1.595541
1.483228
1.535013
1.571199
1.527044
1.47863
1.568194
1.505983
1.534037
1.565552
1.494405
1.605753
1.516838
1.575012
1.557311
1.4798
1.580958
1.503792
1.57446
1.553608
1.472117
1.582611
1.484959
1.557314
1.572109
1.463307
1.596885
1.478164
1.513317
1.533994
1.47442
1.572326
1.477675
1.516993
1.534314
1.45959
1.546991
1.487304
1.529137
1.528809
1.452505
1.525178
1.826923
1.381
1.508173
1.851529
1.365954
1.235034
1.248408
1.225933
1.04687
1.128583
1.022082
0.836616
0.4558495
1.02056
0.9490262
0.5604956
1.614615
1.587267
1.701453
1.599361
1.646339
1.599215
1.739128
1.651453
1.7067
1.559912
1.694225
1.64518
1.694018
1.590493
1.670728
1.633735
1.649717
1.633177
1.695944
1.617666
1.634709
1.647232
1.680424
1.605555
1.665604
1.632087
1.659948
1.56674
1.637032
1.615906
1.625565
1.544002
1.615005
1.58786
1.599258
1.521322
1.598004
1.558655
1.581975
1.500573
1.580541
1.541244
1.651988
1.546164
1.552604
1.577902
1.558551
1.632365
1.607435
1.602268
1.56597
1.54642
1.562583
1.548402
1.572457
1.569478
1.593784
1.537018
1.532756
1.536709
1.51441
1.554761
1.557029
1.589572
1.532934
1.536679
1.533159
1.510642
1.557645
1.556533
1.584981
1.529581
1.534406
1.528395
1.505889
1.549973
1.550224
1.581619
1.525434
1.531966
1.524925
1.503373
1.548066
1.54812
1.575043
1.521555
1.528258
1.520659
1.499605
1.542266
1.542901
1.569851
1.517055
1.524298
1.516134
1.496282
1.537997
1.538838
1.563467
1.512302
1.519385
1.511362
1.492633
1.532621
1.533685
1.556408
1.506369
1.513731
1.50553
1.488027
1.526653
1.52782
1.548163
1.499322
1.506959
1.498659
1.482338
1.519571
1.520759
1.538593
1.490686
1.498799
1.490154
1.475078
1.511151
1.512323
1.527963
1.48069
1.489616
1.480431
1.466483
1.501731
1.502775
1.516277
1.469205
1.479193
1.469398
1.456407
1.491091
1.492
1.688236
1.682727
1.719497
1.631556
1.669637
1.70118
1.735692
1.50329
1.456615
1.467413
1.457571
1.444815
1.479155
1.479803
1.490138
1.443698
1.455144
1.444188
1.433311
1.466641
1.467244
1.477577
1.431263
1.443593
1.43161
1.422055
1.454785
1.455372
1.465795
1.42008
1.433083
1.420218
1.411833
1.443909
1.444468
1.455136
1.409859
1.423637
1.410294
1.403345
1.434192
1.434574
1.445453
1.401277
1.415586
1.401744
1.396215
1.42575
1.426043
1.613847
1.576447
1.674466
1.707229
1.728416
1.651336
1.678717
1.712996
1.733033
0.9570648
1.137111
0.9598656
1.62497
1.580774
1.674919
1.714749
1.728427
1.645009
1.671641
1.715247
1.729231
0.9551015
1.134074
0.9551847
1.640098
1.609003
1.675986
1.719085
1.731563
1.651857
1.679641
1.718721
1.731236
0.9537616
1.130962
0.9492148
1.63715
1.60059
1.679325
1.719789
1.732651
1.650882
1.680102
1.719436
1.731878
0.9579944
1.132906
0.9562344
1.610727
1.620483
1.67946
1.719147
1.73162
1.650355
1.678567
1.718106
1.731332
0.9708224
1.116867
1.088001
1.014516
1.606588
1.643244
1.678508
1.716701
1.729932
1.647726
1.674556
1.716866
1.729772
1.090143
1.03772
1.105136
1.091719
1.05134
1.604194
1.648013
1.670076
1.712318
1.727511
1.645547
1.67296
1.710967
1.726052
1.094743
1.054839
1.108178
1.09262
1.041019
1.600875
1.640671
1.676733
1.708207
1.730867
1.640171
1.672035
1.702801
1.725518
1.112181
1.043361
1.135043
0.9864513
1.602372
1.62467
1.764216
1.575876
1.53988
1.751536
1.708359
1.589087
1.732516
1.718027
1.582081
1.544949
1.587766
1.67763
1.720067
1.584484
1.570127
1.543188
1.631475
1.699046
1.589149
1.597628
1.535533
1.600497
1.494533
1.545342
1.554137
1.473414
1.587352
1.517651
1.580599
1.561061
1.484777
1.566246
1.491432
1.496947
1.511362
1.442446
1.498903
1.521046
1.474522
1.530497
1.480393
1.483965
1.435056
1.504048
1.668874
1.697973
1.732313
1.644023
1.686896
1.680231
1.716434
1.458408
1.488865
1.477444
1.42351
1.490772
1.44375
1.467518
1.462698
1.413147
1.489399
1.306074
1.317624
1.316369
1.440416
1.459876
1.460295
1.396379
1.471686
1.459608
1.421851
1.433001
1.446274
1.386395
1.448911
1.415428
1.431058
1.437417
1.38247
1.434668
1.406073
1.405002
1.376136
1.619265
1.618682
1.667704
1.606298
1.676547
1.569232
1.658598
1.634603
1.592657
1.684951
1.558995
1.606421
1.660375
1.578833
1.73364
1.599904
1.713756
1.559161
1.72218
1.642589
1.662783
1.635604
1.662373
1.640664
1.656207
1.645829
1.690234
1.629176
1.654185
1.660413
1.700769
1.602506
1.667746
1.658673
1.690326
1.564606
1.642208
1.63025
1.662741
1.534479
1.615792
1.605295
1.636745
1.511256
1.594063
1.582677
1.61661
1.486707
1.576392
1.565644
1.594382
1.466108
1.63776
1.590391
1.577784
1.584994
1.608219
1.576321
1.607059
1.612566
1.567309
1.566427
1.562883
1.583274
1.550517
1.585213
1.594217
1.536704
1.551293
1.549741
1.563206
1.537792
1.56843
1.597371
1.544007
1.555699
1.553713
1.569451
1.539253
1.570713
1.586119
1.533413
1.545269
1.543439
1.557034
1.529181
1.560581
1.583492
1.532138
1.545004
1.543652
1.55642
1.528469
1.557961
1.575323
1.526023
1.539819
1.537627
1.548588
1.524202
1.551493
1.569773
1.521961
1.536587
1.534697
1.544315
1.521541
1.546665
1.561908
1.515992
1.531208
1.529256
1.537653
1.516936
1.540081
1.553834
1.509727
1.525193
1.523509
1.530903
1.511781
1.533021
1.544342
1.502219
1.517577
1.516129
1.522796
1.505035
1.524585
1.533426
1.493397
1.508516
1.507389
1.513417
1.496812
1.514783
1.521412
1.483593
1.498115
1.497385
1.502941
1.487141
1.503851
1.508409
1.47261
1.486434
1.486024
1.491046
1.476028
1.491719
1.492992
1.460137
1.473589
1.473162
1.477281
1.463502
1.477994
1.641015
1.480788
1.836946
1.434221
1.531593
1.174937
1.285283
1.251739
1.361874
1.632073
1.833865
1.408294
1.415972
1.723206
1.478082
1.447603
1.46095
1.460379
1.463338
1.451163
1.46442
1.321206
1.298797
1.26611
1.30613
1.279157
1.284716
1.304339
1.303554
1.46416
1.435871
1.449055
1.448276
1.450336
1.43955
1.451709
1.238202
1.265513
1.236985
1.223635
1.185187
1.150313
1.166421
1.209334
1.451478
1.425371
1.438084
1.437177
1.438579
1.429135
1.440189
1.056163
1.126924
1.103888
1.039221
0.9742414
0.8303629
0.7907808
1.012648
1.440206
1.4159
1.42828
1.427382
1.428167
1.420194
1.429522
-0.2850251
0.7685112
-1.315731
0.6086173
-1.470974
-0.3473244
-0.3285234
0.6157813
-1.725795
0.6351178