/*--------------------------------*- C++ -*----------------------------------*\
  =========                 |
  \\      /  F ield         | OpenFOAM: The Open Source CFD Toolbox
   \\    /   O peration     | Website:  https://openfoam.org
    \\  /    A nd           | Version:  7
     \\/     M anipulation  |
\*---------------------------------------------------------------------------*/
FoamFile
{
    version     2.0;
    format      ascii;
    class       volScalarField;
    location    "0.01";
    object      k;
}
// * * * * * * * * * * * * * * * * * * * * * * * * * * * * * * * * * * * * * //

dimensions      [0 2 -2 0 0 0 0];

internalField   nonuniform List<scalar> 
105127
(
0.003757545
0.003756026
0.003754902
0.003754073
0.003753431
0.003756434
0.003755457
0.003754597
0.003753908
0.003753343
0.003755041
0.00375467
0.003754131
0.003753642
0.003753207
0.003754011
0.003753834
0.003753466
0.003753101
0.003752756
0.003753217
0.003753129
0.00375288
0.003752595
0.003752327
0.003752566
0.003752515
0.003752331
0.003752119
0.003751906
0.003752023
0.003751985
0.003751843
0.003751689
0.003751511
0.003751559
0.003751524
0.003751409
0.003751286
0.003751146
0.003751154
0.003751116
0.003751021
0.003750922
0.003750815
0.003750797
0.003750754
0.003750672
0.00375059
0.003750501
0.003750478
0.003750428
0.003750357
0.003750286
0.003750211
0.003750191
0.003750135
0.003750069
0.003750007
0.003749944
0.00374993
0.003749869
0.003749807
0.003749752
0.003749697
0.003749692
0.003749624
0.003749565
0.003749516
0.003749467
0.003749474
0.003749399
0.003749344
0.003749298
0.003749254
0.003749273
0.003749191
0.003749139
0.003749096
0.003749055
0.003749088
0.003748998
0.003748949
0.003748908
0.00374887
0.003748916
0.003748819
0.003748772
0.003748733
0.003748697
0.003748756
0.003748652
0.003748607
0.00374857
0.003748536
0.003748607
0.003748497
0.003748453
0.003748419
0.003748386
0.003748468
0.003748351
0.003748309
0.003748277
0.003748244
0.003748338
0.003748216
0.003748174
0.003748144
0.003748112
0.003748217
0.003748089
0.003748048
0.00374802
0.003747988
0.00371308
0.003713082
0.003713083
0.003747903
0.003747873
0.003726465
0.00371484
0.003714204
0.003714008
0.003713911
0.003715223
0.003713577
0.003713716
0.003713375
0.003713254
0.003713195
0.003713865
0.003713492
0.003713318
0.003713234
0.003713186
0.003713155
0.003713481
0.003713316
0.003713273
0.003713231
0.0037132
0.003713176
0.003713373
0.003713231
0.003713201
0.003713175
0.003713156
0.003713139
0.003713313
0.003713175
0.003713162
0.003713148
0.003713137
0.003713126
0.003713274
0.00371314
0.003713133
0.003713125
0.003713118
0.003713111
0.003713245
0.003713115
0.003713111
0.003713107
0.003713103
0.003713098
0.003713223
0.003713097
0.003713095
0.003713093
0.003713091
0.003713088
0.003713205
0.003713084
0.003713083
0.003713082
0.00371308
0.003713079
0.00371319
0.003713073
0.003713073
0.003713072
0.003713072
0.003713071
0.003713177
0.003713065
0.003713065
0.003713064
0.003713064
0.003713064
0.003713166
0.003713058
0.003713058
0.003713058
0.003713058
0.003713058
0.003713156
0.003713051
0.003713052
0.003713052
0.003713052
0.003713052
0.003713148
0.003713046
0.003713047
0.003713047
0.003713047
0.003713048
0.00371314
0.003713042
0.003713042
0.003713042
0.003713043
0.003713043
0.003713133
0.003713038
0.003713038
0.003713038
0.003713039
0.003713039
0.003713126
0.003713034
0.003713034
0.003713035
0.003713036
0.003713036
0.00371312
0.003713031
0.003713031
0.003713032
0.003713032
0.003713033
0.003713114
0.003713028
0.003713028
0.003713029
0.003713029
0.00371303
0.003713109
0.003713025
0.003713026
0.003713026
0.003713027
0.003713027
0.003713105
0.003713023
0.003713023
0.003713024
0.003713024
0.003713025
0.0037131
0.003713021
0.003713021
0.003713021
0.003713022
0.003713022
0.003713079
0.003713019
0.003713019
0.003713019
0.00371302
0.00371302
0.003727785
0.00371459
0.003713911
0.003713808
0.003713768
0.003715032
0.003713546
0.003713682
0.003713364
0.003713244
0.003713189
0.003713632
0.003713465
0.003713315
0.003713231
0.00371318
0.003713148
0.003713314
0.003713302
0.003713267
0.003713229
0.003713198
0.003713173
0.003713258
0.003713222
0.003713197
0.003713173
0.003713152
0.003713136
0.003713223
0.003713169
0.003713159
0.003713146
0.003713134
0.003713123
0.003713201
0.003713135
0.00371313
0.003713123
0.003713115
0.003713108
0.003713184
0.003713111
0.003713109
0.003713105
0.003713101
0.003713096
0.00371317
0.003713094
0.003713093
0.003713091
0.003713088
0.003713085
0.003713158
0.003713081
0.003713081
0.00371308
0.003713078
0.003713076
0.003713148
0.00371307
0.003713071
0.00371307
0.00371307
0.003713068
0.003713139
0.003713062
0.003713063
0.003713063
0.003713062
0.003713061
0.003713131
0.003713055
0.003713056
0.003713056
0.003713056
0.003713055
0.003713124
0.003713049
0.00371305
0.00371305
0.00371305
0.00371305
0.003713118
0.003713044
0.003713045
0.003713045
0.003713045
0.003713045
0.003713112
0.003713039
0.00371304
0.003713041
0.003713041
0.003713041
0.003713106
0.003713035
0.003713036
0.003713037
0.003713037
0.003713037
0.003713101
0.003713032
0.003713033
0.003713033
0.003713034
0.003713034
0.003713097
0.003713029
0.00371303
0.00371303
0.003713031
0.003713031
0.003713092
0.003713026
0.003713027
0.003713027
0.003713028
0.003713028
0.003713088
0.003713023
0.003713024
0.003713025
0.003713025
0.003713025
0.003713084
0.003713021
0.003713022
0.003713022
0.003713023
0.003713023
0.003713081
0.003713019
0.00371302
0.00371302
0.00371302
0.003713021
0.003713076
0.003713017
0.003713018
0.003713018
0.003713018
0.003713019
0.003728038
0.003714582
0.003713894
0.003713772
0.003713723
0.003714996
0.003713542
0.003713679
0.003713363
0.003713245
0.00371319
0.003713597
0.003713468
0.003713312
0.00371323
0.003713178
0.003713146
0.003713319
0.003713304
0.003713265
0.003713227
0.003713197
0.003713172
0.003713257
0.003713222
0.003713196
0.003713173
0.003713152
0.003713136
0.003713222
0.003713169
0.003713158
0.003713146
0.003713134
0.003713123
0.0037132
0.003713135
0.00371313
0.003713123
0.003713115
0.003713108
0.003713182
0.003713111
0.003713109
0.003713105
0.003713101
0.003713096
0.003713168
0.003713093
0.003713093
0.003713091
0.003713088
0.003713085
0.003713157
0.00371308
0.003713081
0.00371308
0.003713078
0.003713076
0.003713147
0.00371307
0.003713071
0.00371307
0.00371307
0.003713068
0.003713138
0.003713061
0.003713062
0.003713063
0.003713062
0.003713061
0.00371313
0.003713054
0.003713055
0.003713056
0.003713056
0.003713055
0.003713123
0.003713048
0.00371305
0.00371305
0.00371305
0.00371305
0.003713116
0.003713043
0.003713045
0.003713045
0.003713045
0.003713045
0.00371311
0.003713039
0.00371304
0.003713041
0.003713041
0.003713041
0.003713105
0.003713035
0.003713036
0.003713037
0.003713037
0.003713037
0.0037131
0.003713032
0.003713033
0.003713033
0.003713034
0.003713034
0.003713095
0.003713028
0.003713029
0.00371303
0.003713031
0.003713031
0.003713091
0.003713026
0.003713027
0.003713027
0.003713028
0.003713028
0.003713087
0.003713023
0.003713024
0.003713025
0.003713025
0.003713025
0.003713083
0.003713021
0.003713022
0.003713022
0.003713023
0.003713023
0.00371308
0.003713019
0.003713019
0.00371302
0.00371302
0.003713021
0.003713076
0.003713017
0.003713017
0.003713018
0.003713018
0.003713019
0.003727951
0.003714552
0.003713888
0.003713772
0.003713723
0.003714995
0.00371354
0.003713677
0.003713362
0.003713244
0.00371319
0.003713596
0.003713464
0.003713314
0.003713231
0.003713178
0.003713146
0.003713319
0.003713303
0.003713264
0.003713227
0.003713197
0.003713172
0.003713257
0.003713221
0.003713196
0.003713172
0.003713152
0.003713136
0.003713222
0.003713168
0.003713157
0.003713146
0.003713134
0.003713123
0.003713199
0.003713134
0.003713129
0.003713122
0.003713115
0.003713108
0.003713182
0.00371311
0.003713108
0.003713105
0.0037131
0.003713096
0.003713168
0.003713093
0.003713093
0.003713091
0.003713088
0.003713085
0.003713156
0.00371308
0.00371308
0.003713079
0.003713078
0.003713076
0.003713146
0.003713069
0.00371307
0.00371307
0.003713069
0.003713068
0.003713137
0.003713061
0.003713062
0.003713062
0.003713062
0.003713061
0.00371313
0.003713054
0.003713055
0.003713056
0.003713056
0.003713055
0.003713122
0.003713048
0.003713049
0.00371305
0.00371305
0.00371305
0.003713116
0.003713043
0.003713044
0.003713045
0.003713045
0.003713045
0.00371311
0.003713039
0.00371304
0.003713041
0.003713041
0.003713041
0.003713105
0.003713035
0.003713036
0.003713037
0.003713037
0.003713037
0.0037131
0.003713031
0.003713032
0.003713033
0.003713034
0.003713034
0.003713095
0.003713028
0.003713029
0.00371303
0.00371303
0.003713031
0.003713091
0.003713025
0.003713026
0.003713027
0.003713028
0.003713028
0.003713087
0.003713023
0.003713024
0.003713024
0.003713025
0.003713025
0.003713083
0.00371302
0.003713021
0.003713022
0.003713023
0.003713023
0.00371308
0.003713018
0.003713019
0.00371302
0.00371302
0.003713021
0.003713076
0.003713016
0.003713017
0.003713018
0.003713018
0.003713019
0.003727951
0.003714559
0.003713893
0.003713781
0.003713733
0.003714994
0.00371354
0.003713678
0.003713362
0.003713244
0.00371319
0.003713594
0.003713465
0.003713315
0.003713231
0.003713178
0.003713146
0.003713319
0.003713303
0.003713264
0.003713227
0.003713197
0.003713172
0.003713257
0.003713221
0.003713196
0.003713172
0.003713152
0.003713136
0.003713222
0.003713168
0.003713158
0.003713146
0.003713134
0.003713123
0.003713199
0.003713134
0.003713129
0.003713122
0.003713115
0.003713108
0.003713182
0.00371311
0.003713108
0.003713105
0.0037131
0.003713096
0.003713168
0.003713093
0.003713093
0.003713091
0.003713088
0.003713085
0.003713156
0.00371308
0.00371308
0.003713079
0.003713078
0.003713076
0.003713146
0.003713069
0.00371307
0.00371307
0.003713069
0.003713068
0.003713137
0.003713061
0.003713062
0.003713062
0.003713062
0.003713061
0.003713129
0.003713054
0.003713055
0.003713056
0.003713056
0.003713055
0.003713122
0.003713048
0.003713049
0.00371305
0.00371305
0.00371305
0.003713116
0.003713043
0.003713044
0.003713045
0.003713045
0.003713045
0.00371311
0.003713039
0.00371304
0.003713041
0.003713041
0.003713041
0.003713105
0.003713035
0.003713036
0.003713037
0.003713037
0.003713037
0.0037131
0.003713031
0.003713032
0.003713033
0.003713034
0.003713034
0.003713095
0.003713028
0.003713029
0.00371303
0.00371303
0.003713031
0.003713091
0.003713025
0.003713026
0.003713027
0.003713028
0.003713028
0.003713087
0.003713023
0.003713024
0.003713024
0.003713025
0.003713025
0.003713083
0.00371302
0.003713021
0.003713022
0.003713023
0.003713023
0.00371308
0.003713018
0.003713019
0.00371302
0.00371302
0.003713021
0.003713076
0.003713016
0.003713017
0.003713018
0.003713018
0.003713019
0.003728032
0.003714581
0.003713894
0.003713773
0.003713728
0.003715
0.003713544
0.003713687
0.003713365
0.003713245
0.00371319
0.003713587
0.003713466
0.003713312
0.00371323
0.003713179
0.003713147
0.003713319
0.003713304
0.003713265
0.003713226
0.003713196
0.003713172
0.003713257
0.003713222
0.003713196
0.003713172
0.003713152
0.003713136
0.003713222
0.003713169
0.003713158
0.003713146
0.003713134
0.003713123
0.003713199
0.003713134
0.00371313
0.003713123
0.003713115
0.003713108
0.003713182
0.003713111
0.003713109
0.003713105
0.0037131
0.003713096
0.003713168
0.003713093
0.003713093
0.003713091
0.003713088
0.003713085
0.003713156
0.00371308
0.00371308
0.00371308
0.003713078
0.003713076
0.003713146
0.00371307
0.00371307
0.00371307
0.003713069
0.003713068
0.003713138
0.003713061
0.003713062
0.003713062
0.003713062
0.003713061
0.00371313
0.003713054
0.003713055
0.003713056
0.003713056
0.003713055
0.003713123
0.003713048
0.003713049
0.00371305
0.00371305
0.00371305
0.003713116
0.003713043
0.003713044
0.003713045
0.003713045
0.003713045
0.00371311
0.003713039
0.00371304
0.003713041
0.003713041
0.003713041
0.003713105
0.003713035
0.003713036
0.003713037
0.003713037
0.003713037
0.0037131
0.003713031
0.003713032
0.003713033
0.003713034
0.003713034
0.003713095
0.003713028
0.003713029
0.00371303
0.00371303
0.003713031
0.003713091
0.003713026
0.003713026
0.003713027
0.003713028
0.003713028
0.003713087
0.003713023
0.003713024
0.003713024
0.003713025
0.003713025
0.003713083
0.003713021
0.003713021
0.003713022
0.003713023
0.003713023
0.00371308
0.003713019
0.003713019
0.00371302
0.00371302
0.003713021
0.003713076
0.003713017
0.003713017
0.003713018
0.003713018
0.003713019
0.003727902
0.003714626
0.003713904
0.003713777
0.003713728
0.003715024
0.00371357
0.003713666
0.003713367
0.003713245
0.00371319
0.003713592
0.003713468
0.003713315
0.003713233
0.003713182
0.003713151
0.003713319
0.003713304
0.003713268
0.003713229
0.003713198
0.003713173
0.003713256
0.003713222
0.003713197
0.003713174
0.003713153
0.003713136
0.003713221
0.003713169
0.003713159
0.003713146
0.003713134
0.003713123
0.003713199
0.003713134
0.00371313
0.003713123
0.003713115
0.003713108
0.003713182
0.003713111
0.003713109
0.003713105
0.003713101
0.003713096
0.003713168
0.003713093
0.003713093
0.003713091
0.003713088
0.003713085
0.003713156
0.00371308
0.003713081
0.00371308
0.003713078
0.003713076
0.003713146
0.00371307
0.003713071
0.00371307
0.003713069
0.003713068
0.003713137
0.003713062
0.003713062
0.003713062
0.003713062
0.003713061
0.00371313
0.003713055
0.003713056
0.003713056
0.003713056
0.003713055
0.003713122
0.003713049
0.00371305
0.00371305
0.00371305
0.00371305
0.003713116
0.003713044
0.003713045
0.003713045
0.003713045
0.003713045
0.00371311
0.003713039
0.00371304
0.003713041
0.003713041
0.003713041
0.003713105
0.003713035
0.003713036
0.003713037
0.003713037
0.003713037
0.0037131
0.003713032
0.003713033
0.003713033
0.003713034
0.003713034
0.003713095
0.003713029
0.003713029
0.00371303
0.00371303
0.003713031
0.003713091
0.003713026
0.003713027
0.003713027
0.003713028
0.003713028
0.003713087
0.003713023
0.003713024
0.003713024
0.003713025
0.003713025
0.003713083
0.003713021
0.003713022
0.003713022
0.003713023
0.003713023
0.00371308
0.003713019
0.003713019
0.00371302
0.00371302
0.003713021
0.003713076
0.003713017
0.003713017
0.003713018
0.003713018
0.003713019
0.003727354
0.003715207
0.003714501
0.00371426
0.003714126
0.003715167
0.003713696
0.003713671
0.003713395
0.00371327
0.00371321
0.003713571
0.003713475
0.003713324
0.00371324
0.003713191
0.00371316
0.003713344
0.003713314
0.003713271
0.003713227
0.003713197
0.003713173
0.003713275
0.003713229
0.0037132
0.003713175
0.003713156
0.003713139
0.003713236
0.003713175
0.003713161
0.003713147
0.003713136
0.003713126
0.00371321
0.003713139
0.003713132
0.003713124
0.003713118
0.003713111
0.003713191
0.003713115
0.003713111
0.003713107
0.003713103
0.003713098
0.003713176
0.003713097
0.003713095
0.003713093
0.003713091
0.003713088
0.003713164
0.003713083
0.003713083
0.003713081
0.00371308
0.003713079
0.003713153
0.003713073
0.003713073
0.003713072
0.003713072
0.003713071
0.003713143
0.003713064
0.003713064
0.003713064
0.003713064
0.003713064
0.003713135
0.003713057
0.003713057
0.003713058
0.003713058
0.003713058
0.003713128
0.003713051
0.003713051
0.003713052
0.003713052
0.003713052
0.003713121
0.003713046
0.003713046
0.003713047
0.003713047
0.003713048
0.003713115
0.003713041
0.003713042
0.003713042
0.003713043
0.003713043
0.003713109
0.003713037
0.003713038
0.003713038
0.003713039
0.003713039
0.003713104
0.003713034
0.003713034
0.003713035
0.003713035
0.003713036
0.003713099
0.00371303
0.003713031
0.003713032
0.003713032
0.003713033
0.003713094
0.003713028
0.003713028
0.003713029
0.003713029
0.00371303
0.00371309
0.003713025
0.003713025
0.003713026
0.003713027
0.003713027
0.003713086
0.003713023
0.003713023
0.003713024
0.003713024
0.003713025
0.003713083
0.00371302
0.003713021
0.003713021
0.003713022
0.003713022
0.003713079
0.003713018
0.003713019
0.003713019
0.00371302
0.00371302
0.003800793
0.003746944
0.003741068
0.003737694
0.00373513
0.00371572
0.003714446
0.003714066
0.003713827
0.003713741
0.003713696
0.003714971
0.003714175
0.003713697
0.003713526
0.003713448
0.003713399
0.003714378
0.003713693
0.003713521
0.003713424
0.003713374
0.00371334
0.003714143
0.003713541
0.003713423
0.003713366
0.003713334
0.00371331
0.003713991
0.003713417
0.003713351
0.003713317
0.003713298
0.003713282
0.003713888
0.00371334
0.003713301
0.003713279
0.003713268
0.003713258
0.003713811
0.003713289
0.003713265
0.003713249
0.003713243
0.003713237
0.00371375
0.003713251
0.003713236
0.003713225
0.003713222
0.003713218
0.0037137
0.003713223
0.003713214
0.003713205
0.003713204
0.003713202
0.003713658
0.003713201
0.003713195
0.003713188
0.003713188
0.003713188
0.003713621
0.003713183
0.00371318
0.003713174
0.003713175
0.003713175
0.003713589
0.003713167
0.003713167
0.003713162
0.003713163
0.003713164
0.00371356
0.003713154
0.003713155
0.003713151
0.003713152
0.003713154
0.003713533
0.003713143
0.003713145
0.003713142
0.003713143
0.003713144
0.003713509
0.003713134
0.003713136
0.003713133
0.003713135
0.003713136
0.003713486
0.003713125
0.003713128
0.003713126
0.003713127
0.003713129
0.003713466
0.003713117
0.003713121
0.003713119
0.00371312
0.003713122
0.003713447
0.00371311
0.003713114
0.003713113
0.003713114
0.003713115
0.003713429
0.003713104
0.003713108
0.003713107
0.003713108
0.00371311
0.003713413
0.003713098
0.003713103
0.003713101
0.003713103
0.003713104
0.003713398
0.003713092
0.003713098
0.003713097
0.003713098
0.003713099
0.003713384
0.003713087
0.003713093
0.003713092
0.003713093
0.003713095
0.003713371
0.003713078
0.003713079
0.003713081
0.003713083
0.003713085
0.003768934
0.003765684
0.003840982
0.003716551
0.003718946
0.003765418
0.003764207
0.003715537
0.003714184
0.003714629
0.003715078
0.003761984
0.003761446
0.003714937
0.00371404
0.003714072
0.003713932
0.003759646
0.00375929
0.003714309
0.003713661
0.003713898
0.003713672
0.00375785
0.003757579
0.003714087
0.003713502
0.003713803
0.003713518
0.003756391
0.003756183
0.003713937
0.003713404
0.003713735
0.003713427
0.003755175
0.00375501
0.003713838
0.003713342
0.003713682
0.003713365
0.003754137
0.003754002
0.003713763
0.003713299
0.003713638
0.003713319
0.003753233
0.00375312
0.003713705
0.003713266
0.003713601
0.003713284
0.003752434
0.003752339
0.003713657
0.00371324
0.003713569
0.003713256
0.003751719
0.003751638
0.003713617
0.003713219
0.00371354
0.003713233
0.003751075
0.003751006
0.003713581
0.003713201
0.003713514
0.003713214
0.00375049
0.003750431
0.003713551
0.003713186
0.003713491
0.003713197
0.003749956
0.003749904
0.003713523
0.003713173
0.00371347
0.003713183
0.003749465
0.003749419
0.003713498
0.003713162
0.003713451
0.00371317
0.003749012
0.003748971
0.003713474
0.003713151
0.003713433
0.003713159
0.003748592
0.003748555
0.003713453
0.003713142
0.003713417
0.003713149
0.003748203
0.00374817
0.003713434
0.003713134
0.003713401
0.00371314
0.003747841
0.00374781
0.003713416
0.003713126
0.003713387
0.003713132
0.003747503
0.003747476
0.003713399
0.003713119
0.003713374
0.003713124
0.003747188
0.003747163
0.003713384
0.003713113
0.003713362
0.003713117
0.003746894
0.003746871
0.00371337
0.003713107
0.00371335
0.003713111
0.003746618
0.003746597
0.003713357
0.003713102
0.00371334
0.003713105
0.003746363
0.003713198
0.003713371
0.003713097
0.00371333
0.003713073
0.003863586
0.003714676
0.00371881
0.003864824
0.00371466
0.003718442
0.003868975
0.00371453
0.003718673
0.003869446
0.0037146
0.003718645
0.003865594
0.003714518
0.003718635
0.003869498
0.003714584
0.003718624
0.003869008
0.003714518
0.003718623
0.003869812
0.00371459
0.003718623
0.00386961
0.00371452
0.00371862
0.003868621
0.003714587
0.00371862
0.003869413
0.003714523
0.003718625
0.003866168
0.0037146
0.003718624
0.003868713
0.003714547
0.003718619
0.003857566
0.003714616
0.00371858
0.00386225
0.00371466
0.003718249
0.003830236
0.003714863
0.003717861
0.003730436
0.003716872
0.003717732
0.003769275
0.00372481
0.003717191
0.003715453
0.003767074
0.003767983
0.003721414
0.003714792
0.00371462
0.00376283
0.003763969
0.003720851
0.003714535
0.003714372
0.003761037
0.003762503
0.003714968
0.003714623
0.003714869
0.003764453
0.003764287
0.003714043
0.003714077
0.00371394
0.003761937
0.00376145
0.0037136
0.0037139
0.00371367
0.003759657
0.003759294
0.00371344
0.003713803
0.003713518
0.003757851
0.003757584
0.003713346
0.003713735
0.003713427
0.003756389
0.003756187
0.003713288
0.003713682
0.003713365
0.003755173
0.003755013
0.003713248
0.003713638
0.003713319
0.003754135
0.003754004
0.003713218
0.003713601
0.003713284
0.003753231
0.003753122
0.003713195
0.003713568
0.003713256
0.003752433
0.00375234
0.003713176
0.00371354
0.003713233
0.003751719
0.003751639
0.00371316
0.003713514
0.003713214
0.003751076
0.003751007
0.003713146
0.003713491
0.003713197
0.003750491
0.003750431
0.003713135
0.00371347
0.003713183
0.003749957
0.003749905
0.003713125
0.00371345
0.00371317
0.003749466
0.00374942
0.003713116
0.003713433
0.003713159
0.003749014
0.003748972
0.003713108
0.003713416
0.003713149
0.003748595
0.003748556
0.003713101
0.003713401
0.00371314
0.003748206
0.00374817
0.003713094
0.003713387
0.003713132
0.003747844
0.003747811
0.003713088
0.003713374
0.003713124
0.003747506
0.003747477
0.003713083
0.003713362
0.003713117
0.003747192
0.003747164
0.003713098
0.00371333
0.003713073
0.003746365
0.003713983
0.003722883
0.003805382
0.003716833
0.003793077
0.00371795
0.003792662
0.003714952
0.003783618
0.003715486
0.003783475
0.003714412
0.00377753
0.003714678
0.003777446
0.00371416
0.003773083
0.003714316
0.003773002
0.003713995
0.003769546
0.003714101
0.003769469
0.003713877
0.003766617
0.003713954
0.003766546
0.003713786
0.003764123
0.003713845
0.003764059
0.003713714
0.003761957
0.00371376
0.0037619
0.003713653
0.003760047
0.003713691
0.003759996
0.003713602
0.003758344
0.003713633
0.003758298
0.003713559
0.00375681
0.003713584
0.00375677
0.00371352
0.003755418
0.003713542
0.003755382
0.003713487
0.003754147
0.003713505
0.003754115
0.003713457
0.00375298
0.003713473
0.003752951
0.00371343
0.003751904
0.003713444
0.003751878
0.003713406
0.003750908
0.003713418
0.003750884
0.003713384
0.003749984
0.003713395
0.003749962
0.003713365
0.003749124
0.003713374
0.003749104
0.003713347
0.003748322
0.003713355
0.003748305
0.00371333
0.003747573
0.003713337
0.003747558
0.003713315
0.003746873
0.003713321
0.00374686
0.003713301
0.003746218
0.003713307
0.003746207
0.003713288
0.003745606
0.003713293
0.003745595
0.003721068
0.003721309
0.00372098
0.003721232
0.003721056
0.003720855
0.003721209
0.003721056
0.003721221
0.003720978
0.003721247
0.003720915
0.003720923
0.003721135
0.003720982
0.00372111
0.003721874
0.003722619
0.003722588
0.003715321
0.00371496
0.003765202
0.003765821
0.003720352
0.003714373
0.003714247
0.003759614
0.003761299
0.003713078
0.00371335
0.003713111
0.003746897
0.003746872
0.003713073
0.003713339
0.003713105
0.003746622
0.003746599
0.003725048
0.003797389
0.003722024
0.003800147
0.003720421
0.00372142
0.003716192
0.003787769
0.003715643
0.003787992
0.003714823
0.003780458
0.003714682
0.003780602
0.003714367
0.003775311
0.003714306
0.003775423
0.00371413
0.003771331
0.003714089
0.003771423
0.003713974
0.003768104
0.003713944
0.003768179
0.003713862
0.003765396
0.003713837
0.003765458
0.003713774
0.003763069
0.003713753
0.00376312
0.003713704
0.003761033
0.003713685
0.003761075
0.003713645
0.003759228
0.003713629
0.003759262
0.003713596
0.003757609
0.003713581
0.003757638
0.003713553
0.003756146
0.003713539
0.003756171
0.003713515
0.003754814
0.003713503
0.003754834
0.003713482
0.003753595
0.003713471
0.003753612
0.003713452
0.003752473
0.003713443
0.003752488
0.003713426
0.003751436
0.003713417
0.003751449
0.003713402
0.003750475
0.003713394
0.003750487
0.003713381
0.003749582
0.003713373
0.003749592
0.003713361
0.003748751
0.003713354
0.003748759
0.003713343
0.003747975
0.003713337
0.003747981
0.003713327
0.00374725
0.003713321
0.003747255
0.003713312
0.003746572
0.003713307
0.003746576
0.003713298
0.003745937
0.003713293
0.003745941
0.003713285
0.003713464
0.003745345
0.003713231
0.003721027
0.003721267
0.003721056
0.003721108
0.003720947
0.003720965
0.003721151
0.003721058
0.00372096
0.003720965
0.003721291
0.003721282
0.003721143
0.00372101
0.003721345
0.003721302
0.003722851
0.003812129
0.00371616
0.003783556
0.003714673
0.003786485
0.003714217
0.00378557
0.003716341
0.003781337
0.003714968
0.003783624
0.003715562
0.00378346
0.003714831
0.003780492
0.003714685
0.003780637
0.003714415
0.003777579
0.003714682
0.003777472
0.003714369
0.003775334
0.003714307
0.003775449
0.00371416
0.003773115
0.003714314
0.003773021
0.003714131
0.003771347
0.00371409
0.003771439
0.003713997
0.003769566
0.003714099
0.003769485
0.003713877
0.003766629
0.003713955
0.003766554
0.003713862
0.003765401
0.003713837
0.003765464
0.003713786
0.003764131
0.003713843
0.003764064
0.003713775
0.003763072
0.003713753
0.003763124
0.003713714
0.003761963
0.003713758
0.003761903
0.003713704
0.003761035
0.003713686
0.003761078
0.003713653
0.003760052
0.003713689
0.003759998
0.003713646
0.003759229
0.003713629
0.003759264
0.003713602
0.003758347
0.003713632
0.0037583
0.003713596
0.00375761
0.003713581
0.00375764
0.003713559
0.003756813
0.003713583
0.003756771
0.003713553
0.003756147
0.00371354
0.003756171
0.003713521
0.00375542
0.003713541
0.003755383
0.003713515
0.003754815
0.003713503
0.003754835
0.003713487
0.003754148
0.003713504
0.003754115
0.003713457
0.003752983
0.003713473
0.003752951
0.003713452
0.003752472
0.003713443
0.003752488
0.00371343
0.003751904
0.003713443
0.003751878
0.003713426
0.003751435
0.003713417
0.003751449
0.003713406
0.003750908
0.003713417
0.003750885
0.003713402
0.003750475
0.003713394
0.003750487
0.003713385
0.003749984
0.003713394
0.003749963
0.003713381
0.003749582
0.003713374
0.003749592
0.003713365
0.003749124
0.003713373
0.003749105
0.003713361
0.003748751
0.003713355
0.003748759
0.003713347
0.003748322
0.003713354
0.003748305
0.00371333
0.003747574
0.003713337
0.003747558
0.003713327
0.00374725
0.003713321
0.003747256
0.003713286
0.003745185
0.00374535
0.003713281
0.003713358
0.003713183
0.003713358
0.003713092
0.003713092
0.003714035
0.003713276
0.003713432
0.00374502
0.003713231
0.003713276
0.003745039
0.003745027
0.00371328
0.003777225
0.003835441
0.003800622
0.003801202
0.003801323
0.003802615
0.003802905
0.003802822
0.003800999
0.003803373
0.003802858
0.003803728
0.00380327
0.003802252
0.003802287
0.003801138
0.0038012
0.003801013
0.003797393
0.003802056
0.003801526
0.003800137
0.003801083
0.003802602
0.003802878
0.003799973
0.00380196
0.003802282
0.003803842
0.003802762
0.003803322
0.003801792
0.003803088
0.003802863
0.003802698
0.00380238
0.003800031
0.003802459
0.00376585
0.003834795
0.003719447
0.003805781
0.003721227
0.003803854
0.003720205
0.003799672
0.003723652
0.003798879
0.003718136
0.003799864
0.003716848
0.003799248
0.003715097
0.003796614
0.003717285
0.00379358
0.003715841
0.003778944
0.003714369
0.003782423
0.003714167
0.003781894
0.003716074
0.003777072
0.003716926
0.003792626
0.003718788
0.003792319
0.003716063
0.003787833
0.003715706
0.003788113
0.003714997
0.003787614
0.003787021
0.003714801
0.003714436
0.003782208
0.003714933
0.003782562
0.003714578
0.003780899
0.003780489
0.003714347
0.003713975
0.003768117
0.003713945
0.003768193
0.003713909
0.003767173
0.003714081
0.003767311
0.003713934
0.003766623
0.003766414
0.003713876
0.003713848
0.003764839
0.003713984
0.003764956
0.003713866
0.003764361
0.003764174
0.00371382
0.003713753
0.003760975
0.00371384
0.003761064
0.003713763
0.003760599
0.003760446
0.003713731
0.003713715
0.003759344
0.003713785
0.003759423
0.003713722
0.003759005
0.003758864
0.003713695
0.003713681
0.003757867
0.003713737
0.003757938
0.003713687
0.003757559
0.00375743
0.003713663
0.003713655
0.00375624
0.00375612
0.003713636
0.003713482
0.003753598
0.003713472
0.003753612
0.003713575
0.003753103
0.003713599
0.003753148
0.003713576
0.003752882
0.003752783
0.003713562
0.003713535
0.003751033
0.003750945
0.003713524
0.003713516
0.00375038
0.00371353
0.003750414
0.003713516
0.003750202
0.00375012
0.003713506
0.003713343
0.003747975
0.003713337
0.003747981
0.003713499
0.003749426
0.003749348
0.003713491
0.003713484
0.003748857
0.003713494
0.003748885
0.003713288
0.003745612
0.003713293
0.003745598
0.003728892
0.003818203
0.00372404
0.003811659
0.003798527
0.003800293
0.003801778
0.003802748
0.00380278
0.003803689
0.003800186
0.003802824
0.003803016
0.003802847
0.003801259
0.003801097
0.003801123
0.003803064
0.00380355
0.003801575
0.003802228
0.003802467
0.003796191
0.003790262
0.003790212
0.003715379
0.003791842
0.003716645
0.003790531
0.00371653
0.00378652
0.003714272
0.003775211
0.003714325
0.003779193
0.003715629
0.003778911
0.00371586
0.003773777
0.003714018
0.003746874
0.003713321
0.003746864
0.003713315
0.003746576
0.003746581
0.003713312
0.003713307
0.003746223
0.003746211
0.003713301
0.003713306
0.003745942
0.003713294
0.003745947
0.003713298
0.003799757
0.003795313
0.00380253
0.0038027
0.003803567
0.003802618
0.003803215
0.00380326
0.003803162
0.003801304
0.003803406
0.003802706
0.003803145
0.003803072
0.003802361
0.003799875
0.003800381
0.003802
0.003797067
0.003795627
0.003714598
0.003785408
0.00378583
0.003715099
0.003714752
0.003783985
0.003714482
0.003783531
0.00371394
0.003768434
0.003768577
0.003714101
0.003713971
0.003767904
0.003713907
0.003767701
0.003713873
0.00376593
0.003766052
0.003713995
0.003713895
0.003765474
0.003713845
0.003765294
0.003713817
0.003763752
0.003763858
0.003713909
0.003713835
0.003763354
0.003713794
0.003763192
0.003713784
0.003761476
0.003713752
0.00376133
0.003713694
0.003758565
0.003758636
0.003713737
0.003713702
0.003758278
0.003713679
0.003758155
0.003713634
0.003755872
0.003755929
0.003713662
0.003713587
0.003753396
0.003713575
0.003753304
0.003713523
0.00375078
0.003750815
0.003713534
0.003713524
0.003750616
0.003713514
0.003750539
0.003713506
0.003749966
0.003749998
0.003713515
0.00371349
0.003749206
0.003749235
0.003713497
0.00371349
0.003749063
0.003713482
0.003748994
0.003791993
0.00379303
0.00377451
0.003830045
0.003802764
0.003803968
0.003718287
0.003717446
0.003789694
0.003787571
0.003765061
0.003781896