/*--------------------------------*- C++ -*----------------------------------*\
  =========                 |
  \\      /  F ield         | OpenFOAM: The Open Source CFD Toolbox
   \\    /   O peration     | Website:  https://openfoam.org
    \\  /    A nd           | Version:  7
     \\/     M anipulation  |
\*---------------------------------------------------------------------------*/
FoamFile
{
    version     2.0;
    format      ascii;
    class       volVectorField;
    location    "0.01";
    object      U;
}
// * * * * * * * * * * * * * * * * * * * * * * * * * * * * * * * * * * * * * //

dimensions      [0 1 -1 0 0 0 0];

internalField   nonuniform List<vector> 
78470
(
(1.125121 0.004896986 0.01717508)
(1.183692 0.002308534 5.236152e-05)
(1.198739 -0.002725586 0.001729233)
(1.218708 -0.001299872 0.0006689909)
(1.228602 -0.001149696 0.0007689291)
(1.236754 -0.001195569 0.0007045994)
(1.244652 -0.001224863 0.0007149406)
(1.253309 -0.001305808 0.0007425987)
(1.263298 -0.001466182 0.0007898438)
(1.101236 0.04008499 -0.0283766)
(0.9766339 -0.0261927 0.005850042)
(1.022044 -0.006221273 -0.008846093)
(1.021095 -0.01258672 -0.001129464)
(1.032342 -0.01077368 -0.0009912103)
(1.039019 -0.01191951 -0.0002444241)
(1.046802 -0.0125282 -0.000172878)
(1.054716 -0.01391719 -0.0001373564)
(1.063506 -0.01646258 -0.0001673681)
(1.12056 -0.001240784 -0.01270987)
(0.9974309 -0.02428795 0.01241481)
(1.029965 -0.01835343 -0.001573992)
(1.029159 -0.0207183 -0.0003771981)
(1.040212 -0.01868339 -0.0005050441)
(1.046499 -0.01912563 -0.0002184435)
(1.054069 -0.01964773 -0.0002057858)
(1.060898 -0.02124861 -0.0002203139)
(1.067792 -0.02461711 -0.000272709)
(1.119493 -0.02042242 0.005675266)
(1.008539 -0.03070699 0.01025722)
(1.037281 -0.02692868 -0.00136252)
(1.029479 -0.02901441 -0.000486579)
(1.041481 -0.0272411 -2.306925e-05)
(1.046381 -0.02704944 0.0001015992)
(1.053252 -0.02692717 0.0001831979)
(1.058381 -0.02779182 0.0001955081)
(1.062306 -0.03065379 0.0002185331)
(1.118057 -0.035239 0.02252325)
(1.006933 -0.03742934 0.0112445)
(1.033257 -0.03551604 0.002065098)
(1.028445 -0.0361423 -0.0007476471)
(1.040836 -0.03494623 0.0001758952)
(1.046603 -0.03379858 2.039526e-05)
(1.053305 -0.03239402 0.0001044933)
(1.057146 -0.03122992 8.306548e-05)
(1.058009 -0.03160164 7.957164e-05)
(1.11549 -0.04649436 0.03391483)
(1.011241 -0.04549239 0.01116534)
(1.037013 -0.04462506 0.000729248)
(1.029556 -0.0451108 -0.0007675631)
(1.042542 -0.0435383 0.0002121415)
(1.048654 -0.0413466 5.610981e-05)
(1.0558 -0.03775007 0.0001517502)
(1.059161 -0.03301286 0.0001376034)
(1.057679 -0.02833588 0.0001381955)
(1.114886 -0.05392103 0.03898341)
(1.011887 -0.05300201 0.01115707)
(1.035058 -0.05303127 0.002046131)
(1.029978 -0.05373045 -0.0009512341)
(1.044298 -0.05274743 0.0002273905)
(1.052384 -0.04971059 4.393526e-05)
(1.061622 -0.04367538 0.0001554094)
(1.066563 -0.0341536 0.000142613)
(1.064934 -0.02212279 0.0001221441)
(1.11417 -0.06012602 0.04069884)
(1.010359 -0.06031966 0.01106616)
(1.034428 -0.06193887 0.001972872)
(1.029792 -0.06416951 -0.0009654179)
(1.04653 -0.06398542 0.0002209365)
(1.057739 -0.06063956 8.658954e-05)
(1.071412 -0.05214697 0.0002000021)
(1.08085 -0.03686073 0.0001767277)
(1.081907 -0.01546086 0.000119666)
(1.112632 -0.06545523 0.04069134)
(1.007674 -0.06723252 0.01097743)
(1.032083 -0.07127861 0.001773032)
(1.02813 -0.07657139 -0.0008496249)
(1.047967 -0.07894331 0.0002690623)
(1.064318 -0.07721308 0.0002401055)
(1.085587 -0.06763052 0.00037976)
(1.103377 -0.04585491 0.0002308372)
(1.110324 -0.01322511 0.0001923789)
(1.109916 -0.06913191 0.03942697)
(1.002958 -0.07313939 0.01089649)
(1.027225 -0.08081843 0.001077825)
(1.022586 -0.09062958 -0.0005866908)
(1.046305 -0.09757642 0.0003953312)
(1.069299 -0.1002848 0.0005320801)
(1.103123 -0.09159442 0.0005320621)
(1.135405 -0.06265606 0.0003322437)
(1.152621 -0.01506331 5.377209e-05)
(1.105294 -0.06982694 0.03761581)
(0.9945513 -0.07700499 0.01077125)
(1.015553 -0.08979469 0.001524604)
(1.011774 -0.1076047 -0.0003396316)
(1.038516 -0.1238498 0.0003994116)
(1.070677 -0.137125 0.001123142)
(1.123639 -0.1340618 0.001499641)
(1.179923 -0.09439831 0.000281387)
(1.208367 -0.03245658 0.0009114773)
(1.099589 -0.06539995 0.03199137)
(0.9812466 -0.07673972 0.0106694)
(0.998441 -0.09679792 7.339657e-05)
(0.9900006 -0.1254482 -5.003602e-05)
(1.016668 -0.1543459 -0.0007216139)
(1.059969 -0.1899236 -0.002253882)
(1.145891 -0.2044442 -0.00418371)
(1.235387 -0.1531198 -0.0003331742)
(1.280485 -0.04844605 -0.0008478506)
(1.0863 -0.05432276 0.03782629)
(0.9614792 -0.06994814 0.01082257)
(0.9704353 -0.09710087 -0.000157848)
(0.9545102 -0.1394919 0.0007817317)
(0.9768546 -0.1874377 -0.00178203)
(1.027468 -0.264974 -0.01326337)
(1.147813 -0.3021176 -0.008896781)
(1.328194 -0.2203731 0.004380837)
(1.374977 -0.09252084 0.01163023)
(1.073499 -0.03313753 0.03920476)
(0.9345686 -0.05292139 0.01076236)
(0.9300445 -0.087717 0.001254099)
(0.8999258 -0.1461654 0.001394985)
(0.8859236 -0.2237017 -0.002889136)
(0.9376684 -0.3560755 -0.02131014)
(1.056591 -0.6295754 -0.04218619)
(1.497609 -0.6023129 0.01624883)
(1.487753 -0.2918648 0.01037248)
(1.059302 0.0005581015 0.03215737)
(0.9085586 -0.01929192 0.01040599)
(0.8823347 -0.05678602 -0.0009089795)
(0.818163 -0.1126209 0.001832874)
(0.7549732 -0.2084513 -0.004281971)
(0.6968368 -0.353286 -0.02544925)
(0.7683403 -0.6649108 -0.07503523)
(0.5760022 -1.766358 -0.02336315)
(1.045023 0.04594421 0.02336022)
(0.8809229 0.03127694 0.00965615)
(0.8364111 0.00374412 0.00166181)
(0.7522024 -0.03766183 0.001280496)
(0.6502016 -0.1037082 -0.004063921)
(0.5322689 -0.1991723 -0.01975896)
(0.4517615 -0.3883082 -0.04165444)
(0.1789074 -0.6658919 -0.02046985)
(1.03647 0.09851575 0.007820633)
(0.8664782 0.09335702 0.008270452)
(0.8116958 0.07829009 -0.0006544626)
(0.7113422 0.05818776 0.0009825186)
(0.5924276 0.02552705 -0.003403962)
(0.4487051 -0.01688458 -0.01365622)
(0.3134746 -0.1415239 -0.02423691)
(0.09269925 -0.2484602 -0.01143606)
(1.020778 0.1558569 0.003228668)
(0.8554934 0.1606821 0.007583482)
(0.8055538 0.1627054 -0.001772967)
(0.6961438 0.1664345 0.0009595553)
(0.5734748 0.1671394 -0.003118008)
(0.4217009 0.1655497 -0.01126953)
(0.2477207 0.0892032 -0.02066428)
(0.03755252 0.05468391 -0.005479915)
(1.011138 0.2133892 0.006310941)
(0.8589604 0.2270597 0.007140271)
(0.8177629 0.2473427 -0.002601279)
(0.7119849 0.2751753 0.0005549337)
(0.5922977 0.3093972 -0.003256889)
(0.4418051 0.3526823 -0.01312196)
(0.2287897 0.3083572 -0.01808694)
(0.01250013 0.3302292 -0.001207299)
(1.013521 0.2647279 0.02138801)
(0.8748812 0.2858695 0.007146352)
(0.8502485 0.32383 -0.003656119)
(0.7573575 0.3753683 0.0002503331)
(0.653583 0.4497504 -0.005512203)
(0.5133781 0.5391726 -0.01776187)
(0.2534771 0.5394641 -0.01720852)
(0.007677925 0.6227637 0.005640577)
(1.031969 0.3020295 0.02045043)
(0.9116673 0.3296246 0.00695278)
(0.9039819 0.3829788 -0.003709177)
(0.8375672 0.4573588 0.0001572756)
(0.7592758 0.5726867 -0.005991846)
(0.6640835 0.7298657 -0.02927391)
(0.3737419 0.8139734 -0.02754705)
(0.02884475 1.002494 0.005712966)
(1.057281 0.3227032 0.01768083)
(0.9545925 0.3535651 0.007286718)
(0.9753416 0.4149255 -0.004067552)
(0.9474791 0.5025353 0.001070852)
(0.9305652 0.6401374 -0.006781465)
(0.9338832 0.8450608 -0.03475735)
(0.6921593 1.095442 -0.04972545)
(0.1647494 1.640037 -0.007725782)
(1.222913 1.070145 -0.0368112)
(2.284808 1.892896 -0.01511421)
(2.287813 0.1444053 0.008555731)
(1.026769 0.05389917 -0.0446331)
(1.069442 0.01131947 0.01703487)
(0.9990152 0.003682556 -0.009230707)
(1.031422 -0.006212955 0.004278029)
(1.029383 -0.00349084 0.0005796631)
(1.039556 -0.003890591 0.001263289)
(1.046537 -0.003785898 0.0006308757)
(1.055338 -0.004190085 0.0005683019)
(1.065194 -0.004985635 0.0005184203)
(0.7504394 -0.1855213 -0.1763107)
(0.9387557 -0.01478199 -0.02640337)
(1.04914 -0.03942297 -0.001093058)
(1.025925 -0.006733728 -0.003215506)
(1.038804 -0.01436709 2.71506e-05)
(1.042622 -0.009960076 0.0007868175)
(1.049512 -0.0113218 0.000910544)
(1.056694 -0.01167907 0.0007408201)
(1.064677 -0.01303309 0.0006206719)
(1.073635 -0.01549374 0.0005379322)
(0.7076083 -0.04992329 -0.3091919)
(0.9806758 -0.01857815 0.0534483)
(1.061362 -0.02985847 0.002615084)
(1.026576 -0.01532691 0.009496574)
(1.036047 -0.02083782 0.002324081)
(1.041403 -0.01812339 0.002793925)
(1.047173 -0.0192458 0.001251013)
(1.054256 -0.01977879 0.0006740992)
(1.061047 -0.02145603 0.0002766904)
(1.067934 -0.02487147 5.653368e-05)
(0.7359485 -0.04284128 -0.3963435)
(0.9627928 -0.02015002 0.05224855)
(1.04931 -0.03735687 -0.007193274)
(1.034404 -0.02391045 0.0189999)
(1.033264 -0.02926647 0.001877497)
(1.043251 -0.02667024 0.003418008)
(1.046766 -0.02691634 0.001467871)
(1.053525 -0.02673247 0.0009566917)
(1.058583 -0.0275995 0.0005325964)
(1.062568 -0.03044802 0.0003315814)
(0.7482562 -0.04000126 -0.4182455)
(0.9709639 -0.03471718 0.07066879)
(1.047013 -0.04197764 -0.008091484)
(1.036588 -0.03424589 0.02276156)
(1.032319 -0.03626566 0.00241581)
(1.043943 -0.03462377 0.004091509)
(1.046995 -0.03387962 0.001671894)
(1.053589 -0.03243525 0.0009692128)
(1.05734 -0.03129399 0.0004364152)
(1.05822 -0.03165793 0.0001888495)
(0.7509662 -0.04120663 -0.4305447)
(0.9798134 -0.04647536 0.07395353)
(1.046367 -0.04932439 -0.01364926)
(1.039778 -0.04432612 0.02399056)
(1.032255 -0.04499528 0.002452098)
(1.045795 -0.0434716 0.00425108)
(1.048763 -0.04138322 0.001609848)
(1.056092 -0.03771994 0.001013242)
(1.059375 -0.03297504 0.0004876008)
(1.057966 -0.02828945 0.0002433959)
(0.7504053 -0.04348277 -0.4362371)
(0.9797229 -0.05419233 0.07254316)
(1.045017 -0.05434911 -0.01511902)
(1.040443 -0.05312988 0.02433662)
(1.032795 -0.05378812 0.002320034)
(1.047862 -0.05280082 0.004193937)
(1.052619 -0.04974594 0.001597792)
(1.061933 -0.04368108 0.0009659396)
(1.066798 -0.03412769 0.0004353624)
(1.065249 -0.02203209 0.0001671128)
(0.7482043 -0.04669684 -0.4309037)
(0.9815422 -0.06041935 0.0737988)
(1.044287 -0.06088582 -0.01526384)
(1.039974 -0.06212059 0.02435694)
(1.032657 -0.06393486 0.002310087)
(1.050002 -0.0640003 0.00412175)
(1.057861 -0.06055252 0.001492569)
(1.071675 -0.05198236 0.000915122)
(1.081059 -0.0367372 0.0003862552)
(1.082266 -0.0153103 7.577659e-05)
(0.7455823 -0.05035301 -0.4277755)
(0.9803173 -0.06467293 0.07286592)
(1.041465 -0.06677249 -0.0148864)
(1.037078 -0.07123691 0.0243667)
(1.031193 -0.07601614 0.0021468)
(1.051415 -0.07891372 0.004029505)
(1.064721 -0.07684957 0.001517155)
(1.085704 -0.06735344 0.0009226106)
(1.103515 -0.04561183 0.0002893195)
(1.110761 -0.01322892 -3.637565e-06)
(0.7434761 -0.05356444 -0.4271977)
(0.9757785 -0.06745198 0.07035095)
(1.035807 -0.07231645 -0.01456464)
(1.030395 -0.08050984 0.02445591)
(1.025553 -0.08981319 0.00205056)
(1.049321 -0.09734014 0.003935031)
(1.069487 -0.09886485 0.001376453)
(1.102951 -0.08985757 0.0006958591)
(1.135302 -0.06228078 0.0001063559)
(1.153169 -0.01437326 -0.0005044039)
(0.7429675 -0.05572042 -0.4275621)
(0.969308 -0.06794535 0.06789179)
(1.026743 -0.07646118 -0.01462858)
(1.019278 -0.08962779 0.02433566)
(1.014989 -0.1065951 0.001747443)
(1.042494 -0.1230233 0.003875951)
(1.071806 -0.1343173 0.001637263)
(1.122493 -0.1330801 0.00166637)
(1.179303 -0.09382021 -8.054571e-06)
(1.209214 -0.03379971 0.0001909547)
(0.7448167 -0.05429687 -0.4342397)
(0.960733 -0.06409092 0.06705082)
(1.01299 -0.07673321 -0.01463465)
(1.000223 -0.09630634 0.02450409)
(0.9930449 -0.1239135 0.0014346)
(1.021768 -0.1539669 0.004072853)
(1.059755 -0.1824371 0.002170152)
(1.143897 -0.1934025 0.0001738012)
(1.234554 -0.1541599 -0.00026336)
(1.282241 -0.04515686 -0.003906555)
(0.7503913 -0.04794651 -0.4368447)
(0.9497602 -0.05286745 0.06632166)
(0.9938342 -0.07021807 -0.01509521)
(0.9724413 -0.0969723 0.02435549)
(0.9581041 -0.1377949 0.001622678)
(0.9841877 -0.1880107 0.004808168)
(1.032319 -0.2587887 0.007706638)
(1.15002 -0.3167162 0.01412845)
(1.334226 -0.2235091 -0.0001315637)
(1.391424 -0.103146 0.005022301)
(0.7587811 -0.03409265 -0.4236185)
(0.9323041 -0.03250782 0.06858968)
(0.9678298 -0.05389283 -0.01642179)
(0.9332635 -0.08882429 0.02444656)
(0.9029399 -0.1450547 0.001766481)
(0.9027378 -0.230186 0.00374657)
(0.9263893 -0.3648441 0.008610189)
(1.025829 -0.6093127 -0.008118792)
(1.503617 -0.605522 0.0005005381)
(1.460002 -0.2050383 -0.003277491)
(0.7605775 0.003653642 -0.4095596)
(0.9187921 0.001579319 0.07024143)
(0.9377239 -0.01915337 -0.01467445)
(0.8817416 -0.05721098 0.02480536)
(0.8179707 -0.1145243 0.002202671)
(0.7666201 -0.2086359 0.005238133)
(0.6840984 -0.3589296 0.009408809)
(0.7714241 -0.6694746 -0.009131004)
(0.632071 -1.791741 -0.008649599)
(0.7519476 0.05116408 -0.4116722)
(0.904984 0.04703166 0.0650124)
(0.9096025 0.03248278 -0.0104248)
(0.837893 0.002386059 0.02283593)
(0.7515608 -0.03818163 0.001201161)
(0.6579708 -0.1039469 0.001317067)
(0.5235852 -0.2032115 0.003672616)
(0.4098344 -0.3582998 -0.01115318)
(0.06407952 -0.5100421 -0.00258956)
(0.7264626 0.09534898 -0.3425406)
(0.8990138 0.09983902 0.06568144)
(0.8938075 0.09402577 -0.008028206)
(0.8110037 0.07796689 0.02183164)
(0.7107323 0.05853263 0.001569813)
(0.5988932 0.02400235 0.003016563)
(0.438773 -0.01990248 0.002317786)
(0.2844945 -0.1254999 -0.005507823)
(0.04737673 -0.1711769 0.001505602)
(0.709902 0.1301776 -0.2451462)
(0.8960487 0.1563415 0.06867762)
(0.8894437 0.1600425 -0.01022415)
(0.8032317 0.1614569 0.01888304)
(0.6980163 0.1662399 0.001766142)
(0.5787769 0.1669623 0.002154354)
(0.4099309 0.1664429 0.005969504)
(0.2247169 0.1033085 -0.001532029)
(0.0287441 0.09532045 0.003851438)
(0.7030981 0.1726853 -0.1716309)
(0.9173487 0.2172062 0.07629877)
(0.9012331 0.2258281 -0.01525198)
(0.8170031 0.2452467 0.01498365)
(0.7157177 0.2750723 0.002278205)
(0.5965635 0.3096814 0.002082698)
(0.4332563 0.3549489 0.01069631)
(0.2138291 0.3277177 0.007166497)
(0.02421612 0.3405978 0.007863876)
(0.7129066 0.2155651 -0.1533776)
(0.9295129 0.2657255 0.07506191)
(0.9244336 0.28587 -0.01667064)
(0.8516747 0.3224281 0.01258338)
(0.7615681 0.3755095 0.001516533)
(0.6597357 0.4511761 -0.004661822)
(0.5025306 0.5487442 0.01490682)
(0.2446734 0.5492049 0.01565842)
(0.03823791 0.5870479 -0.005191506)
(0.7185098 0.2527549 -0.1438397)
(0.9378951 0.3067642 0.0697481)
(0.9586185 0.3313018 -0.0192764)
(0.9057395 0.3825061 0.01423322)
(0.8432478 0.4583769 0.001678045)
(0.7674043 0.5733905 0.003545243)
(0.656162 0.743296 0.006676421)
(0.3464343 0.8692679 0.002677402)
(0.02615428 1.06182 -0.00244585)
(0.7211932 0.2741901 -0.1393697)
(0.9625065 0.3259713 0.0682215)
(1.002816 0.3553129 -0.02015558)
(0.9783479 0.41411 0.01464575)
(0.9531235 0.5026257 0.00260394)
(0.9479377 0.6416871 0.002618392)
(0.9188213 0.8579147 0.01482697)
(0.6458328 1.143121 -0.004010098)
(0.0642227 1.665315 0.03841573)
(0.724392 0.2797399 -0.1393534)
(1.228181 1.107117 -0.007249418)
(2.205682 1.775258 0.0005018546)
(2.19471 0.2832592 0.05446914)
(1.051021 0.04836922 0.004444616)
(1.083732 0.02598236 0.003912384)
(1.007885 0.01336159 0.003246812)
(1.036072 -0.005304887 0.002025504)
(1.037318 -0.003304751 0.001370058)
(1.047921 -0.004120787 0.001042421)
(1.055299 -0.003952128 0.0006761443)
(1.064407 -0.004420933 0.0004880426)
(1.074419 -0.005246633 0.0003413826)
(0.7589457 -0.2740665 -0.03715117)
(0.9443439 0.1014595 0.02020658)
(1.033598 -0.0516567 -0.01129521)
(1.03102 0.01304563 0.006400507)
(1.033381 -0.01319806 -9.240816e-05)
(1.041531 -0.007611107 0.001627837)
(1.047529 -0.0106529 0.0009008289)
(1.055178 -0.01129563 0.0006394381)
(1.063283 -0.01288574 0.000390319)
(1.072301 -0.01538788 0.0002112859)
(0.7619417 -0.1428289 -0.115295)
(1.079533 0.09768665 0.1281919)
(0.9406027 -0.03665184 -0.00837732)
(1.035431 0.003954325 0.02319534)
(1.016079 -0.01889067 0.002331184)
(1.037814 -0.01623208 0.003619429)
(1.044391 -0.01828482 0.001775905)
(1.053223 -0.01918466 0.00102749)
(1.060436 -0.02108712 0.0005110929)
(1.067619 -0.02454145 0.0002492997)
(0.8269143 -0.1016251 -0.2513419)
(1.09496 0.0182231 0.2604366)
(0.9251186 -0.04602995 -0.02693597)
(1.047107 -0.01918626 0.02894938)
(1.013355 -0.02909064 0.001145408)
(1.040118 -0.02590023 0.004283982)
(1.043814 -0.0264326 0.001950173)
(1.052425 -0.02650109 0.001203455)
(1.057897 -0.02750225 0.0006026571)
(1.062194 -0.03040699 0.0003245242)
(0.8733527 -0.07751753 -0.2848861)
(1.104833 -0.005510585 0.297014)
(0.9096298 -0.04549693 -0.03056347)
(1.045973 -0.03087963 0.03171977)
(1.009834 -0.03571091 0.001707964)
(1.037968 -0.03421539 0.00416491)
(1.043376 -0.03348594 0.002239988)
(1.052163 -0.03231638 0.001229256)
(1.056535 -0.03124722 0.0005837286)
(1.057781 -0.03164612 0.0002815314)
(0.8987723 -0.06456721 -0.2932198)
(1.12036 -0.03144217 0.297664)
(0.9043867 -0.05221642 -0.03151163)
(1.049581 -0.04322311 0.03266697)
(1.011112 -0.0451855 0.001682353)
(1.0404 -0.04322424 0.004748742)
(1.045333 -0.04138158 0.002212479)
(1.054664 -0.03776632 0.001217867)
(1.058556 -0.03303727 0.0005519189)
(1.057516 -0.02836981 0.0002531642)
(0.9088647 -0.05327528 -0.295692)
(1.124912 -0.04375576 0.2956747)
(0.8991137 -0.05458184 -0.03125682)
(1.04777 -0.05266278 0.03167785)
(1.010926 -0.0539242 0.001119495)
(1.04213 -0.05263697 0.004441095)
(1.04906 -0.04990572 0.001991344)
(1.060478 -0.04382956 0.001061905)
(1.065974 -0.03427158 0.0004416551)
(1.064787 -0.02217683 0.000148772)
(0.913246 -0.05167467 -0.2911584)
(1.127159 -0.05585017 0.279374)
(0.894885 -0.06052803 -0.03031934)
(1.044973 -0.06211019 0.03027224)
(1.010739 -0.06419279 0.0008577825)
(1.044115 -0.06394956 0.004160183)
(1.054416 -0.06083538 0.001770864)
(1.070288 -0.0522574 0.0009508722)
(1.080239 -0.03702548 0.0003170792)
(1.08187 -0.01558975 3.32098e-05)
(0.9124984 -0.05239687 -0.2933843)
(1.126069 -0.0631895 0.2761304)
(0.8916446 -0.06714826 -0.02965754)
(1.041345 -0.07164003 0.02954967)
(1.00887 -0.07642672 0.0007533715)
(1.045312 -0.07887635 0.003832837)
(1.061031 -0.07748746 0.001524992)
(1.084299 -0.06795027 0.000743916)
(1.102765 -0.04605734 0.0001391562)
(1.110351 -0.01378248 -0.000157837)
(0.9102147 -0.05373507 -0.2946157)
(1.122506 -0.06735991 0.2813057)
(0.8871653 -0.07380714 -0.02889509)
(1.036169 -0.08121146 0.02989205)
(1.003717 -0.09036154 0.0009429273)
(1.044032 -0.09760108 0.003857516)
(1.065856 -0.1002231 0.001200546)
(1.101785 -0.09085166 0.0004729293)
(1.134617 -0.06298093 -0.000158413)
(1.153388 -0.01520541 -0.0005922797)
(0.9077541 -0.05422809 -0.300584)
(1.116421 -0.06837583 0.2903934)
(0.8797913 -0.0781891 -0.02920507)
(1.026571 -0.0902946 0.03064284)
(0.9930295 -0.1072646 0.0007604692)
(1.036349 -0.1237941 0.003597968)
(1.068013 -0.1368881 0.0007203519)
(1.121823 -0.1349802 0.0003002129)
(1.178492 -0.0958896 -0.0004338258)
(1.20843 -0.0364831 -0.0004640464)
(0.9077128 -0.0488355 -0.3107022)
(1.107875 -0.06528574 0.2987859)
(0.8666939 -0.07860992 -0.03067086)
(1.010175 -0.09679523 0.03120649)
(0.9701482 -0.1245534 7.443644e-05)
(1.01427 -0.1547973 0.003036719)
(1.055214 -0.1885309 -0.0008207967)
(1.143899 -0.196844 -0.001070176)
(1.231272 -0.1559927 -0.00120406)
(1.285566 -0.04703758 -0.003267933)
(0.9001896 -0.0468003 -0.3235399)
(1.093704 -0.0512615 0.3143045)
(0.8493662 -0.07311292 -0.03234967)
(0.9860092 -0.09754433 0.03268752)
(0.9350214 -0.1380124 -0.0003307935)
(0.9773419 -0.189237 0.003405644)
(1.027724 -0.2657068 -0.003286858)
(1.153516 -0.3155005 -0.0001259881)
(1.338155 -0.2269734 -0.0009634776)
(1.384619 -0.1163615 0.003075082)
(0.921359 -0.02269319 -0.3157324)
(1.094279 -0.03062057 0.3095756)
(0.8212626 -0.05451746 -0.03667531)
(0.9455991 -0.08887358 0.0313269)
(0.8798833 -0.1445806 -0.001488895)
(0.8906712 -0.2277877 0.001935766)
(0.9283669 -0.3683256 -0.00492075)
(1.027563 -0.5947069 -0.004228027)
(1.498541 -0.5968407 -0.004516068)
(1.443318 -0.2121842 -0.01208267)
(0.9078904 0.04057659 -0.3177081)
(1.07278 -0.00174036 0.3014154)
(0.7920834 -0.01512441 -0.03688696)
(0.8966258 -0.05722146 0.03141782)
(0.7991211 -0.11462 -0.001275975)
(0.7572536 -0.2123954 0.003512119)
(0.691998 -0.3640365 -0.006099804)
(0.7780636 -0.6661422 0.007147715)
(0.6313731 -1.780416 -0.0091407)
(0.8627066 0.08059797 -0.3275428)
(1.034839 0.04268448 0.3198364)
(0.7698235 0.03626234 -0.03437133)
(0.8493558 0.001873003 0.0269345)
(0.7255614 -0.03837105 -0.003097934)
(0.6449818 -0.1055293 -0.002802102)
(0.510485 -0.201008 -0.01130197)
(0.3079765 -0.3157716 -0.003193897)
(0.1020119 -0.5095704 -0.01916672)
(0.8338702 0.1201465 -0.2550166)
(1.03001 0.1039809 0.2465243)
(0.7601129 0.09237381 -0.02736585)
(0.8199352 0.07614825 0.02159681)
(0.6864221 0.05856527 -0.002821569)
(0.5853287 0.02402019 -0.002103647)
(0.4325066 -0.02078683 -0.0123401)
(0.186641 -0.05303633 0.01071291)
(0.05605608 -0.1884463 -0.00520982)
(0.7838097 0.1619767 -0.1954087)
(1.048002 0.1702365 0.1972488)
(0.7636398 0.1571162 -0.02087697)
(0.811963 0.1573603 0.01846584)
(0.6767128 0.1666129 -0.001188682)
(0.56821 0.1661488 -0.001225529)
(0.3944567 0.1788469 -0.004125406)
(0.1578204 0.1785991 0.01321269)
(0.7458675 0.1941715 -0.1411431)
(1.080496 0.2241979 0.1290998)
(0.794991 0.2289079 -0.002303611)
(0.8256813 0.240848 0.01731043)
(0.6941202 0.2758383 0.000285378)
(0.5908694 0.3048721 -0.001652964)
(0.4109341 0.3642852 0.001952816)
(0.198091 0.3749749 0.02124494)
(0.742729 0.2341556 -0.1164407)
(1.084549 0.2704222 0.1119564)
(0.8153845 0.2911354 -0.003027594)
(0.8688299 0.3215031 0.01901207)
(0.7363266 0.3758943 0.0006215399)
(0.6560692 0.4556438 -0.008628112)
(0.4555636 0.5421675 0.004516258)
(0.282622 0.6327196 -0.01070605)
(0.02220441 0.2897539 0.05796671)
(0.7629613 0.268784 -0.1119497)
(1.0911 0.3066242 0.1166719)
(0.8424472 0.3364725 -0.008905165)
(0.9157996 0.380988 0.01802347)
(0.823709 0.4587733 -0.0002205375)
(0.7581089 0.5808132 9.718938e-05)
(0.6606364 0.7274715 -0.005827383)
(0.3490941 0.8162494 -0.007948624)
(0.03615978 1.076733 -0.001069752)
(0.7774368 0.287298 -0.1070072)
(1.112262 0.3291108 0.1165955)
(0.8843519 0.3597204 -0.01111885)
(0.9887691 0.4120557 0.018814)
(0.9337263 0.5034977 0.0001779047)
(0.9380621 0.6434046 0.0007515963)
(0.9251396 0.8591175 -0.004292444)
(0.655043 1.130908 -0.0003795274)
(0.07050781 1.64571 0.005771822)
(1.239409 1.095924 -0.004117465)
(2.205175 1.77096 -0.005839495)
(2.197722 0.2879045 -0.046745)
(1.058473 0.0468261 -0.0007485671)
(1.078778 0.02668501 0.001058612)
(1.011578 0.01391322 0.001449134)
(1.038576 -0.007223469 0.0009171122)
(1.037958 -0.002982152 0.0008126835)
(1.048182 -0.004064835 0.0006738221)
(1.055301 -0.003787752 0.0005143274)
(1.06442 -0.00425105 0.0003994865)
(1.074464 -0.005056181 0.0003105903)
(0.7897927 -0.4380606 -0.0208772)
(0.9716878 0.1183847 0.005008388)
(1.033047 -0.05648436 -0.006412559)
(1.037524 0.01670028 0.003112416)
(1.033454 -0.01356715 3.096798e-05)
(1.042627 -0.006690743 0.001109287)
(1.047585 -0.01040904 0.0007361328)
(1.055217 -0.01113855 0.0006147876)
(1.0633 -0.01280815 0.0004821894)
(1.072387 -0.01534608 0.0003985498)
(0.801672 -0.2917705 -0.06181538)
(1.084086 0.2361722 0.02985064)
(0.9329399 -0.04849546 -0.00700119)
(1.040745 0.0121601 0.008127416)
(1.013192 -0.01956284 0.0003670623)
(1.037588 -0.01568952 0.001752798)
(1.043825 -0.01804748 0.0009680325)
(1.053037 -0.01905886 0.0006640812)
(1.060315 -0.02107608 0.0004035968)
(1.067601 -0.02457143 0.0002560245)
(0.3887145 -0.1381356 -0.1197813)
(1.187227 0.1037272 0.1091246)
(0.8868381 -0.04782002 -0.00931212)
(1.061247 -0.01429599 0.01332527)
(1.012834 -0.02899276 0.001117827)
(1.040973 -0.02549706 0.002398012)
(1.043021 -0.02668047 0.0009656207)
(1.052239 -0.02644046 0.0007702802)
(1.057728 -0.02748336 0.000454571)
(1.062195 -0.03038557 0.0003125817)
(0.4368775 -0.04862759 -0.1704204)
(1.195734 0.009039654 0.1650539)
(0.8669317 -0.04560852 -0.01731663)
(1.055058 -0.03162939 0.01023211)
(1.007097 -0.03620376 -0.0009478831)
(1.038468 -0.03420892 0.00170435)
(1.042645 -0.03359703 0.0007521656)
(1.051979 -0.03243584 0.0005381937)
(1.056363 -0.03135125 0.0003245231)
(1.057751 -0.03174871 0.0002119759)
(0.5764975 -0.009411522 -0.2438721)
(1.197417 -0.02745122 0.2041301)
(0.8590649 -0.04991428 -0.02531209)
(1.052657 -0.04458175 0.008163224)
(1.003018 -0.04607785 -0.004311107)
(1.039162 -0.04346673 0.001042806)
(1.044595 -0.04163538 0.0001569768)
(1.054506 -0.03790262 0.000316579)
(1.0584 -0.03313763 0.0002108996)
(1.057495 -0.02845247 0.0001454956)
(0.598463 0.0004872516 -0.2620054)
(1.199891 -0.04678245 0.2251771)
(0.8556628 -0.05321107 -0.02960935)
(1.053472 -0.05418204 0.006407602)
(1.002493 -0.05481925 -0.007508262)
(1.041504 -0.05289504 0.0004714421)
(1.048383 -0.05018971 -0.000508696)
(1.060355 -0.04399071 7.851646e-05)
(1.065863 -0.03437727 4.515135e-05)
(1.064782 -0.02227015 2.682909e-05)
(0.597854 -0.001047441 -0.2797204)
(1.193504 -0.05789757 0.2540415)
(0.8578704 -0.05984744 -0.02993824)
(1.054796 -0.06314885 0.005333062)
(1.002973 -0.06456429 -0.009663973)
(1.044181 -0.06405558 6.347086e-05)
(1.053881 -0.06095311 -0.0009701679)
(1.070325 -0.05228993 -0.0001886743)
(1.080179 -0.03704142 -8.478532e-05)
(1.081918 -0.01565901 -7.186688e-05)
(0.6042242 -0.007322335 -0.279093)
(1.192606 -0.05736677 0.2576778)
(0.8564394 -0.06647278 -0.02697685)
(1.051395 -0.07224591 0.00513789)
(1.001588 -0.07619073 -0.01057905)
(1.045155 -0.07867315 -5.825678e-05)
(1.060561 -0.07735988 -0.001264814)
(1.084233 -0.06786572 -0.0002344175)
(1.10264 -0.04609697 -0.0002372111)
(1.110318 -0.01403873 -0.0001769423)
(0.6085075 -0.0105242 -0.2708002)
(1.187962 -0.05753486 0.2460481)
(0.8494895 -0.0729361 -0.02669161)
(1.045016 -0.08149777 0.004953041)
(0.9957902 -0.09001996 -0.01099265)
(1.043723 -0.09707236 -0.0004205606)
(1.06534 -0.09962266 -0.001368008)
(1.101676 -0.09029826 -0.000400608)
(1.13434 -0.06297148 -0.0003668064)
(1.153734 -0.01521044 -0.0004040343)
(0.6128261 -0.01854968 -0.2510724)
(1.184846 -0.05709656 0.2266576)
(0.8372439 -0.0788323 -0.02810985)
(1.03289 -0.09059603 0.004908059)
(0.9845595 -0.1072162 -0.01074053)
(1.035751 -0.12339 -0.0002298319)
(1.067945 -0.1361519 -0.001176578)
(1.12108 -0.1346477 -2.278491e-06)
(1.17779 -0.09646984 -0.0003093357)
(1.20724 -0.03837854 -0.0001635933)
(0.6113321 -0.02807453 -0.2428938)
(1.181897 -0.05112231 0.2207203)
(0.8219508 -0.07985602 -0.02636115)
(1.014111 -0.09721732 0.005375398)
(0.9620515 -0.1242285 -0.008996247)
(1.014185 -0.1537817 -0.000303404)
(1.054591 -0.1865394 -0.0009177806)
(1.14242 -0.1944703 -0.0002369139)
(1.229172 -0.1557544 -0.0002832372)
(1.286961 -0.04522932 -0.001326413)
(0.4750609 -0.01362098 -0.1997471)
(1.18279 -0.04295356 0.1882772)
(0.8002513 -0.07491261 -0.02639673)
(0.9874485 -0.09880695 0.004750573)
(0.927099 -0.1383502 -0.008756918)
(0.9783647 -0.1883511 -0.0005405084)
(1.028788 -0.2640389 0.0005580125)
(1.149435 -0.3155892 0.002466377)
(1.338727 -0.2290381 -0.0004401379)
(1.38062 -0.1247762 0.00350263)
(0.5893959 0.007556492 -0.3157206)
(1.181269 -0.03352069 0.2447328)
(0.7822834 -0.05678762 -0.02951473)
(0.9534817 -0.09019817 0.004402021)
(0.8726935 -0.1450562 -0.008767924)
(0.8938942 -0.2275834 -0.000284989)
(0.9262731 -0.3677239 0.0003173582)
(1.022041 -0.5952176 -0.001242414)
(1.494734 -0.5967283 -0.002021651)
(1.432516 -0.2125789 -0.002831741)
(0.5866558 0.001276048 -0.2953614)
(1.161296 0.004516389 0.2268887)
(0.7565584 -0.01693893 -0.02891674)
(0.9066684 -0.05854214 0.003628005)
(0.7913228 -0.1147462 -0.006647828)
(0.7627312 -0.2128237 -0.0002870071)
(0.6901266 -0.3639517 0.001289859)
(0.7754742 -0.6660167 0.002892232)
(0.6292122 -1.775139 -0.009299761)
(0.3673383 0.04993327 -0.1260567)
(1.155078 0.01748258 0.1366394)
(0.7460426 0.03747037 -0.01896757)
(0.8681879 -0.0006615635 0.004456022)
(0.73072 -0.03863598 -0.003365921)
(0.6493414 -0.1061241 -0.0002346701)
(0.5072176 -0.2014436 0.0003889644)
(0.3029264 -0.3158037 0.0008632996)
(0.09714516 -0.509292 0.0002389745)
(0.6253448 0.1518624 -0.1423717)
(1.094175 0.03347023 0.1105291)
(0.7609156 0.1003138 -0.0118961)
(0.8412066 0.07380389 0.00637152)
(0.6920919 0.05811548 -0.001425305)
(0.5868621 0.02253871 0.001078725)
(0.4221271 -0.01999915 0.00111112)
(0.1743083 -0.05512466 0.002671053)
(0.04873989 -0.1910264 0.003929546)
(0.6555813 0.1712984 -0.09437665)
(1.078149 0.1198927 0.07497004)
(0.7690289 0.165862 -0.005644955)
(0.8288304 0.1566773 0.004924941)
(0.6770854 0.1686533 -0.0006923149)
(0.569973 0.1665541 0.001496877)
(0.3838616 0.1810185 0.005227228)
(0.1484486 0.1747507 0.0008243007)
(0.7505842 0.2288494 -0.06259822)
(1.05045 0.1751319 0.04092084)
(0.7890002 0.2309617 -0.001227504)
(0.8334915 0.239047 0.005271744)
(0.693053 0.27806 0.0002580044)
(0.5909965 0.3050227 0.001691427)
(0.3969971 0.3677761 0.006448527)
(0.1944717 0.3759006 0.0007385329)
(0.7782707 0.2539574 -0.04691119)
(1.056795 0.2451218 0.02793446)
(0.8097618 0.2907569 -0.006809504)
(0.8720407 0.3190875 0.003117206)
(0.7347794 0.3763982 0.0007553433)
(0.6593288 0.4574259 -0.00105365)
(0.4413382 0.540178 0.007534895)
(0.2869074 0.645633 -0.007175086)
(0.0170557 0.2509287 -0.00605978)
(0.7692846 0.2707014 -0.03899989)
(1.079519 0.298917 0.03036693)
(0.8427828 0.3375615 -0.01389205)
(0.9242609 0.3800254 0.0008516396)
(0.8252816 0.4581316 -0.0006212409)
(0.760953 0.5825126 -6.612384e-05)
(0.6562183 0.7232835 0.002990298)
(0.340029 0.8293975 -0.0006347158)
(0.02621504 1.099801 -0.002254977)
(0.7757556 0.2871196 -0.03728445)
(1.097497 0.3245719 0.0270248)
(0.8867795 0.3613357 -0.01390158)
(0.9971123 0.4114392 0.001107538)
(0.9360773 0.5027809 3.167114e-05)
(0.9430117 0.6431494 0.0002239073)
(0.9240042 0.8578084 0.003538527)
(0.6486521 1.130088 0.0003904056)
(0.07052874 1.643503 0.002327339)
(1.236853 1.092717 0.0007645432)
(2.202342 1.765062 -0.001558279)
(2.207943 0.3066944 -0.004931711)
(1.066376 0.04931721 0.003383465)
(1.07617 0.02986113 0.000827315)
(1.008868 0.01575432 0.002515158)
(1.037011 -0.006346078 0.001096588)
(1.037164 -0.002890625 0.0009340447)
(1.047739 -0.004083199 0.0006195285)
(1.055027 -0.003807941 0.0004207918)
(1.064206 -0.004276463 0.0003127854)
(1.074292 -0.005079284 0.0002088012)
(0.7983551 -0.5105437 -0.01230813)
(0.9590888 0.130226 0.004443375)