/*--------------------------------*- C++ -*----------------------------------*\
  =========                 |
  \\      /  F ield         | OpenFOAM: The Open Source CFD Toolbox
   \\    /   O peration     | Website:  https://openfoam.org
    \\  /    A nd           | Version:  7
     \\/     M anipulation  |
\*---------------------------------------------------------------------------*/
FoamFile
{
    version     2.0;
    format      ascii;
    class       volScalarField;
    location    "0.03";
    object      epsilon;
}
// * * * * * * * * * * * * * * * * * * * * * * * * * * * * * * * * * * * * * //

dimensions      [0 2 -3 0 0 0 0];

internalField   nonuniform List<scalar> 
90967
(
0.000944808
0.0009656916
0.0009726637
0.0009742976
0.0009747351
0.000974801
0.0009658567
0.001007391
0.001020636
0.001024133
0.001025117
0.001025345
0.0009727522
0.001020548
0.001037378
0.001042079
0.001043489
0.001043858
0.0009744
0.001024081
0.001042143
0.001047466
0.00104915
0.001049626
0.000974841
0.001025119
0.001043646
0.001049266
0.001051115
0.001051672
0.0009749665
0.001025471
0.0010442
0.001049973
0.001051926
0.001052548
0.0009749624
0.001025563
0.001044392
0.001050255
0.001052283
0.001052966
0.0009748902
0.001025536
0.001044421
0.001050347
0.001052439
0.001053185
0.0009747615
0.00102543
0.001044352
0.001050332
0.001052487
0.001053303
0.0009745755
0.001025251
0.0010442
0.001050231
0.001052452
0.001053349
0.0009743209
0.001024986
0.001043949
0.001050028
0.001052319
0.001053309
0.0009739795
0.001024599
0.001043551
0.001049665
0.001052028
0.001053127
0.0009735084
0.001024011
0.001042894
0.001049013
0.00105144
0.001052662
0.0009728212
0.001023031
0.001041713
0.001047763
0.001050229
0.001051584
0.0009716538
0.001021099
0.001039262
0.00104508
0.001047521
0.001049003
0.0009689539
0.001016133
0.001032929
0.001038175
0.001040491
0.001042086
0.0009599887
0.001000206
0.00101326
0.001017353
0.00101938
0.001021007
0.0009324131
0.0009523788
0.0009597078
0.0009623013
0.000964015
0.0009656431
0.00192721
0.002002689
0.002016141
0.002022372
0.002028596
0.002035774
0.002044345
0.009090673
0.009203486
0.00931826
0.009439237
0.009572678
0.009723981
0.009902043
0.001920321
0.001951284
0.001957286
0.001959464
0.001960917
0.001962391
0.001963926
0.002071608
0.002098324
0.002113923
0.00211718
0.00211757
0.002117542
0.002117274
0.01182335
0.0118162
0.01181594
0.01181593
0.01181589
0.01181585
0.01181589
0.01182549
0.01181624
0.01181597
0.01181592
0.01181591
0.01181591
0.01181592
0.01182484
0.01181623
0.01181598
0.01181592
0.01181593
0.01181595
0.01181598
0.01182499
0.01181624
0.01181601
0.01181597
0.01181598
0.01181601
0.01181605
0.01182502
0.01181628
0.01181604
0.01181603
0.01181605
0.01181611
0.01181617
0.01182524
0.01181633
0.01181609
0.01181612
0.01181617
0.01181627
0.01181638
0.01182562
0.01181646
0.01181618
0.01181625
0.01181635
0.01181652
0.01181669
0.0118255
0.01181667
0.01181633
0.01181647
0.01181662
0.01181688
0.01181715
0.01182529
0.01181689
0.01181656
0.01181679
0.01181702
0.01181741
0.01181781
0.01182505
0.0118172
0.01181693
0.01181727
0.01181762
0.01181818
0.01181876
0.01182477
0.01181769
0.0118175
0.01181799
0.0118185
0.01181929
0.01182013
0.01182447
0.0118184
0.01181833
0.01181902
0.01181977
0.01182091
0.01182211
0.01182419
0.01181939
0.0118195
0.01182047
0.01182158
0.01182323
0.01182515
0.01182394
0.01182073
0.01182109
0.01182244
0.01182406
0.0118265
0.01182951
0.01182373
0.0118224
0.01182312
0.011825
0.0118274
0.01183112
0.01183625
0.01182354
0.01182445
0.0118256
0.01182819
0.01183167
0.01183727
0.01184549
0.01182301
0.01182648
0.01182827
0.01183162
0.01183667
0.01184503
0.01185862
0.01182129
0.01182927
0.01183052
0.01183481
0.01184139
0.01185312
0.01187393
0.01182614
0.01182332
0.01183043
0.01183693
0.0118443
0.01185767
0.01188188
0.01193172
0.00204446
0.01181363
0.01181378
0.01181392
0.01181425
0.01181493
0.01181624
0.002088967
0.0009845509
0.0009998966
0.001005878
0.001007167
0.001007469
0.0118248
0.01181662
0.01181586
0.01181589
0.01181553
0.01181577
0.01181584
0.01181804
0.01181727
0.01181723
0.0118172
0.01181719
0.0118172
0.01181723
0.0118178
0.01181724
0.01181723
0.01181722
0.01181722
0.01181724
0.01181728
0.01181779
0.01181727
0.01181726
0.01181726
0.01181727
0.0118173
0.01181736
0.0118178
0.0118173
0.01181732
0.01181732
0.01181736
0.01181741
0.01181748
0.0118178
0.01181734
0.01181737
0.01181742
0.01181748
0.01181758
0.01181769
0.0118178
0.0118174
0.01181748
0.01181755
0.01181767
0.01181783
0.011818
0.01181782
0.01181751
0.01181763
0.01181777
0.01181795
0.01181819
0.01181846
0.01181787
0.0118177
0.01181788
0.01181809
0.01181836
0.01181872
0.01181913
0.01181797
0.011818
0.01181826
0.01181857
0.01181897
0.01181949
0.0118201
0.01181814
0.01181848
0.01181883
0.01181928
0.01181986
0.01182061
0.01182151
0.01181842
0.01181919
0.01181967
0.01182031
0.01182113
0.01182223
0.01182358
0.01181882
0.0118202
0.01182084
0.01182175
0.01182294
0.01182456
0.01182661
0.0118194
0.01182155
0.01182241
0.01182371
0.01182542
0.01182783
0.01183104
0.01182008
0.01182327
0.01182442
0.01182625
0.01182875
0.01183243
0.01183762
0.01182106
0.01182522
0.01182675
0.01182941
0.01183294
0.01183851
0.01184678
0.0118216
0.01182751
0.01182943
0.01183257
0.01183796
0.01184634
0.01186041
0.0118233
0.0118306
0.01183033
0.01183635
0.0118429
0.01185524
0.01187645
0.0118199
0.01182486
0.0118267
0.01182782
0.01183428
0.01184365
0.01186206
0.001894583
0.001817924
0.001833654
0.001836627
0.001837591
0.002072542
0.01181341
0.01181385
0.01181404
0.01181425
0.01181484
0.01181603
0.002103909
0.000999656
0.001027268
0.001036648
0.001038861
0.001039403
0.01182403
0.0118166
0.01181585
0.01181592
0.0118156
0.01181581
0.01181585
0.01181778
0.01181722
0.01181721
0.0118172
0.01181719
0.0118172
0.01181723
0.01181762
0.01181717
0.01181718
0.0118172
0.01181721
0.01181724
0.01181728
0.01181764
0.01181717
0.01181721
0.01181724
0.01181726
0.0118173
0.01181735
0.01181765
0.01181721
0.01181727
0.01181731
0.01181735
0.0118174
0.01181748
0.01181764
0.01181726
0.01181733
0.0118174
0.01181747
0.01181757
0.01181768
0.01181764
0.01181733
0.01181743
0.01181754
0.01181766
0.01181782
0.011818
0.01181764
0.01181745
0.01181759
0.01181775
0.01181793
0.01181818
0.01181846
0.01181765
0.01181765
0.01181783
0.01181808
0.01181835
0.01181871
0.01181913
0.01181768
0.01181797
0.01181822
0.01181856
0.01181896
0.01181948
0.0118201
0.01181774
0.01181846
0.01181879
0.01181928
0.01181985
0.01182061
0.01182152
0.01181784
0.01181919
0.01181964
0.01182032
0.01182114
0.01182225
0.01182361
0.01181797
0.01182021
0.01182083
0.01182179
0.01182298
0.01182461
0.01182669
0.01181817
0.01182158
0.01182243
0.0118238
0.01182552
0.01182796
0.01183123
0.0118183
0.01182335
0.0118245
0.01182643
0.01182895
0.01183267
0.01183796
0.01181863
0.01182528
0.01182686
0.01182964
0.0118332
0.0118389
0.01184736
0.01181831
0.01182771
0.0118297
0.01183286
0.01183837
0.01184701
0.01186162
0.01181981
0.01183047
0.01183017
0.0118366
0.01184307
0.01185577
0.01187774
0.01181998
0.01182534
0.01182615
0.01182216
0.01182896
0.01183589
0.01185687
0.001817861
0.001648552
0.0016682
0.001671224
0.001671775
0.002087371
0.01181333
0.01181383
0.01181393
0.0118141
0.01181468
0.01181588
0.002106876
0.001005052
0.001035848
0.001047188
0.001049859
0.001050523
0.01182402
0.01181659
0.01181584
0.01181592
0.01181562
0.01181583
0.01181587
0.01181789
0.01181718
0.01181717
0.01181718
0.01181718
0.01181719
0.01181722
0.01181763
0.01181711
0.01181714
0.01181718
0.0118172
0.01181724
0.01181728
0.01181763
0.01181712
0.01181715
0.01181721
0.01181725
0.01181729
0.01181735
0.01181765
0.01181715
0.01181721
0.01181727
0.01181733
0.0118174
0.01181747
0.01181763
0.01181719
0.01181727
0.01181736
0.01181746
0.01181756
0.01181768
0.01181764
0.01181726
0.01181737
0.0118175
0.01181764
0.01181781
0.011818
0.01181763
0.01181737
0.01181753
0.01181771
0.01181792
0.01181817
0.01181846
0.01181764
0.01181756
0.01181778
0.01181804
0.01181834
0.0118187
0.01181913
0.01181768
0.01181787
0.01181816
0.01181852
0.01181895
0.01181948
0.0118201
0.01181774
0.01181836
0.01181874
0.01181924
0.01181985
0.01182061
0.01182153
0.01181784
0.01181908
0.01181959
0.01182028
0.01182115
0.01182225
0.01182362
0.01181799
0.0118201
0.01182078
0.01182175
0.01182299
0.01182462
0.01182671
0.01181819
0.01182146
0.01182238
0.01182375
0.01182553
0.01182795
0.01183123
0.01181834
0.01182324
0.01182446
0.01182636
0.01182891
0.0118326
0.0118379
0.01181872
0.01182516
0.01182679
0.01182954
0.01183312
0.01183888
0.01184747
0.01181839
0.01182771
0.0118297
0.01183281
0.01183847
0.0118473
0.01186235
0.01182007
0.01183039
0.01183009
0.01183681
0.01184342
0.01185649
0.01187917
0.01182014
0.01182534
0.01182692
0.011822
0.01182998
0.01183729
0.01185969
0.001833032
0.001668019
0.001686381
0.001689218
0.001689707
0.002090391
0.01181332
0.01181385
0.01181397
0.01181414
0.01181472
0.01181592
0.00210703
0.001005048
0.001035838
0.001047164
0.001049825
0.001050495
0.01182401
0.01181659
0.01181584
0.01181592
0.01181562
0.01181583
0.01181587
0.01181789
0.01181718
0.01181717
0.01181718
0.01181718
0.01181719
0.01181722
0.01181763
0.01181711
0.01181714
0.01181718
0.0118172
0.01181724
0.01181728
0.01181763
0.01181712
0.01181715
0.01181721
0.01181725
0.01181729
0.01181735
0.01181765
0.01181715
0.01181721
0.01181727
0.01181733
0.0118174
0.01181747
0.01181763
0.01181719
0.01181727
0.01181736
0.01181746
0.01181756
0.01181768
0.01181764
0.01181726
0.01181737
0.0118175
0.01181764
0.01181781
0.011818
0.01181763
0.01181737
0.01181753
0.01181771
0.01181792
0.01181817
0.01181846
0.01181764
0.01181756
0.01181778
0.01181804
0.01181834
0.0118187
0.01181913
0.01181768
0.01181787
0.01181816
0.01181852
0.01181895
0.01181948
0.0118201
0.01181774
0.01181836
0.01181874
0.01181924
0.01181985
0.01182061
0.01182153
0.01181784
0.01181908
0.01181959
0.01182028
0.01182115
0.01182225
0.01182362
0.01181799
0.0118201
0.01182078
0.01182175
0.01182299
0.01182461
0.01182671
0.01181819
0.01182146
0.01182238
0.01182375
0.01182553
0.01182795
0.01183122
0.01181834
0.01182324
0.01182446
0.01182636
0.01182891
0.0118326
0.0118379
0.01181873
0.01182516
0.01182679
0.01182954
0.01183312
0.01183888
0.01184748
0.01181839
0.0118277
0.01182971
0.01183282
0.01183847
0.0118473
0.01186235
0.01182007
0.01183039
0.01183009
0.0118368
0.01184341
0.0118565
0.01187919
0.01182014
0.01182532
0.01182693
0.01182201
0.01182998
0.01183727
0.01185969
0.001833035
0.001668023
0.001686394
0.001689237
0.001689737
0.002090628
0.01181332
0.01181385
0.01181397
0.01181414
0.01181472
0.01181592
0.002105922
0.000999643
0.001027225
0.001036531
0.001038678
0.001039263
0.01182406
0.0118166
0.01181585
0.01181591
0.01181557
0.01181581
0.01181586
0.01181778
0.01181722
0.01181721
0.0118172
0.01181719
0.0118172
0.01181723
0.01181762
0.01181717
0.01181718
0.0118172
0.01181721
0.01181724
0.01181728
0.01181764
0.01181717
0.01181721
0.01181724
0.01181726
0.0118173
0.01181735
0.01181765
0.01181721
0.01181727
0.01181731
0.01181735
0.0118174
0.01181748
0.01181764
0.01181726
0.01181732
0.0118174
0.01181747
0.01181757
0.01181768
0.01181764
0.01181733
0.01181743
0.01181754
0.01181766
0.01181782
0.011818
0.01181764
0.01181745
0.01181758
0.01181775
0.01181793
0.01181818
0.01181846
0.01181765
0.01181765
0.01181783
0.01181808
0.01181835
0.01181871
0.01181913
0.01181768
0.01181797
0.01181822
0.01181856
0.01181896
0.01181948
0.0118201
0.01181774
0.01181846
0.01181879
0.01181928
0.01181985
0.01182061
0.01182152
0.01181784
0.01181918
0.01181964
0.01182032
0.01182114
0.01182225
0.01182361
0.01181798
0.01182021
0.01182083
0.01182179
0.01182298
0.01182461
0.01182669
0.01181816
0.01182157
0.01182243
0.0118238
0.01182552
0.01182796
0.01183124
0.0118183
0.01182335
0.01182451
0.01182643
0.01182895
0.01183267
0.01183796
0.01181863
0.01182527
0.01182686
0.01182964
0.0118332
0.01183891
0.01184736
0.01181831
0.01182771
0.01182969
0.01183286
0.01183839
0.01184704
0.01186164
0.01181981
0.01183047
0.01183018
0.01183663
0.01184311
0.01185576
0.01187767
0.01182007
0.01182528
0.01182611
0.01182208
0.0118289
0.01183598
0.01185713
0.001817874
0.001648579
0.001668253
0.001671293
0.00167189
0.002089651
0.01181333
0.01181382
0.01181393
0.0118141
0.01181468
0.01181588
0.002096904
0.0009845337
0.0009997974
0.001005438
0.001006289
0.001006892
0.01182464
0.01181662
0.01181586
0.01181588
0.01181533
0.01181576
0.01181585
0.01181804
0.01181727
0.01181723
0.0118172
0.01181719
0.0118172
0.01181723
0.0118178
0.01181724
0.01181722
0.01181722
0.01181722
0.01181724
0.01181728
0.01181779
0.01181727
0.01181725
0.01181726
0.01181727
0.0118173
0.01181736
0.0118178
0.0118173
0.01181731
0.01181732
0.01181736
0.01181741
0.01181748
0.0118178
0.01181733
0.01181737
0.01181741
0.01181748
0.01181758
0.01181769
0.0118178
0.0118174
0.01181747
0.01181755
0.01181767
0.01181783
0.011818
0.01181782
0.01181751
0.01181763
0.01181777
0.01181795
0.01181819
0.01181846
0.01181786
0.0118177
0.01181788
0.01181809
0.01181836
0.01181872
0.01181913
0.01181797
0.011818
0.01181826
0.01181857
0.01181897
0.01181949
0.0118201
0.01181814
0.01181847
0.01181884
0.01181928
0.01181986
0.01182061
0.01182151
0.01181841
0.01181919
0.01181967
0.01182031
0.01182113
0.01182223
0.01182358
0.01181881
0.0118202
0.01182084
0.01182175
0.01182294
0.01182456
0.01182661
0.01181939
0.01182156
0.0118224
0.01182371
0.01182542
0.01182783
0.01183104
0.01182005
0.01182329
0.01182441
0.01182625
0.01182875
0.01183244
0.01183762
0.01182105
0.01182521
0.01182675
0.0118294
0.01183295
0.01183853
0.01184679
0.01182161
0.01182749
0.01182947
0.01183258
0.01183794
0.01184631
0.01186037
0.01182328
0.01183058
0.01183032
0.01183628
0.01184284
0.01185531
0.01187669
0.01182006
0.01182466
0.01182675
0.01182838
0.0118343
0.01184365
0.01186208
0.001894625
0.001818026
0.001833859
0.001836804
0.001837925
0.002080364
0.01181341
0.01181385
0.01181404
0.01181425
0.01181483
0.01181603
0.002082901
0.002130861
0.002199402
0.002208314
0.002199679
0.00220309
0.002209433
0.01182271
0.01181622
0.01181595
0.01181593
0.01181588
0.01181584
0.0118159
0.01182314
0.01181623
0.01181597
0.01181592
0.01181591
0.01181591
0.01181593
0.01182384
0.01181623
0.01181597
0.01181592
0.01181593
0.01181595
0.01181598
0.01182325
0.01181624
0.01181601
0.01181597
0.01181598
0.01181601
0.01181605
0.01182324
0.01181627
0.01181604
0.01181603
0.01181605
0.01181611
0.01181617
0.01182317
0.01181633
0.01181609
0.01181612
0.01181617
0.01181627
0.01181638
0.01182311
0.01181646
0.01181618
0.01181625
0.01181635
0.01181652
0.01181669
0.01182302
0.01181667
0.01181633
0.01181646
0.01181662
0.01181688
0.01181715
0.01182291
0.01181687
0.01181657
0.01181679
0.01181702
0.01181741
0.01181781
0.01182326
0.01181719
0.01181693
0.01181728
0.01181762
0.01181818
0.01181877
0.01182245
0.01181768
0.01181748
0.01181799
0.0118185
0.0118193
0.01182013
0.01182222
0.01181841
0.01181831
0.01181902
0.01181977
0.01182091
0.01182212
0.01182162
0.0118194
0.01181948
0.01182048
0.01182158
0.01182324
0.01182517
0.01182113
0.01182072
0.0118211
0.01182245
0.01182407
0.01182652
0.01182954
0.01182089
0.01182238
0.01182315
0.01182502
0.01182742
0.01183114
0.01183626
0.0118204
0.01182448
0.01182558
0.0118282
0.01183168
0.01183732
0.01184553
0.01181894
0.01182655
0.01182824
0.01183165
0.01183669
0.01184504
0.01185854
0.01181899
0.01182925
0.01183047
0.01183477
0.01184134
0.01185301
0.0118741
0.01182654
0.0118232
0.01182837
0.01182991
0.01183309
0.01184641
0.01186997
0.01191648
0.002062836
0.01181362
0.01181377
0.01181392
0.01181425
0.01181493
0.01181623
0.00475154
0.004884487
0.004894252
0.004894994
0.004728304
0.004725409
0.004894122
0.0118238
0.0009450398
0.0009657555
0.0009726915
0.0009744528
0.0009754359
0.0009750563
0.01175052
0.0009662778
0.001007476
0.001020672
0.001024196
0.001025218
0.001025422
0.01182822
0.0009728621
0.001020593
0.0010374
0.001042114
0.001043541
0.001043899
0.01182632
0.0009744115
0.001024093
0.00104215
0.001047476
0.001049161
0.001049636
0.0118263
0.0009748426
0.001025124
0.00104365
0.001049269
0.001051118
0.001051674
0.01182627
0.0009749673
0.001025474
0.001044204
0.001049975
0.001051927
0.001052548
0.01182621
0.000974967
0.001025573
0.0010444
0.00105026
0.001052285
0.001052965
0.01182662
0.0009749201
0.001025567
0.00104444
0.001050355
0.001052442
0.001053185
0.0118276
0.000975023
0.001025513
0.001044395
0.001050343
0.00105249
0.001053304
0.01183955
0.0009753665
0.001025382
0.001044263
0.001050246
0.001052456
0.00105335
0.01183161
0.0009749162
0.001025143
0.001044007
0.001050044
0.001052322
0.001053311
0.0118346
0.0009746203
0.001024752
0.001043596
0.001049679
0.001052029
0.001053126
0.01182857
0.0009739346
0.001024143
0.001042935
0.001049024
0.001051439
0.001052658
0.0118292
0.0009731425
0.001023168
0.001041763
0.001047773
0.001050227
0.001051579
0.01183703
0.0009723542
0.001021297
0.001039354
0.00104511
0.001047541
0.001049013
0.01182877
0.0009701587
0.001016389
0.001033094
0.001038331
0.00104068
0.001042207
0.01183249
0.0009608252
0.00100046
0.001013592
0.001018117
0.001020421
0.001021668
0.01181654
0.0009328178
0.0009524808
0.0009604062
0.0009656304
0.0009686399
0.0009683259
0.01182133
0.01157402
0.01140405
0.01121641
0.01102108
0.01087513
0.01063738
0.01026141
0.004675572
0.01181203
0.01181238
0.0118109
0.01181164
0.01180653
0.01180794
0.01181258
0.001940119
0.004953016
0.01185362
0.01181646
0.001949968
0.00200777
0.004751614
0.004892125
0.01172222
0.01179835
0.002019999
0.002027605
0.004884402
0.00490483
0.01173047
0.01178876
0.002028659
0.002029704
0.004894214
0.00490892
0.01172106
0.0117879
0.002029649
0.00203001
0.004897198
0.004909699
0.01172237
0.01178985
0.002029783
0.002030022
0.004897809
0.004909631
0.01172073
0.01179018
0.002029717
0.002029865
0.004897633
0.004909037
0.01171911
0.01179052
0.002029449
0.004896892
0.01171606
0.001951033
0.002007236
0.01182361
0.01065104
0.01182832
0.01064687
0.002020229
0.002027022
0.0118245
0.01064412
0.01182607
0.01064435
0.00202842
0.002029129
0.01182619
0.01064537
0.01182633
0.0106458
0.002029235
0.002029322
0.01182624
0.01064875
0.01182633
0.01064899
0.002029208
0.002029245
0.01182622
0.01065429
0.01182635
0.01065431
0.002029004
0.002029039
0.01182618
0.01066287
0.01182645
0.01066282
0.00202866
0.002028707
0.01182612
0.01067551
0.01182658
0.01067541
0.002028165
0.002028234
0.01182657
0.01069338
0.01182676
0.01069328
0.002027486
0.00202759
0.01182752
0.01071814
0.01182702
0.01071778
0.00202659
0.002026725
0.01182815
0.01075103
0.01182738
0.01075049
0.002025441
0.002025605
0.01182885
0.01079388
0.01182786
0.01079333
0.002023993
0.002024179
0.01182968
0.01084939
0.01182842
0.01084872
0.002022198
0.002022398
0.01183069
0.01091922
0.01182917
0.01091882
0.00202001
0.002020194
0.01183188
0.01100502
0.01182987
0.0110046
0.002017356
0.002017464
0.01183321
0.01110934
0.0118301
0.0111082
0.002014108
0.002013515
0.0118345
0.01123163
0.01182963
0.01122933
0.00200861
0.002001684
0.01183614
0.011373
0.0118274
0.01137152
0.001984641
0.001927167
0.01183199
0.01152774
0.01182213
0.01152977
0.001914761
0.003986783
0.01182433
0.01183303
0.01182127
0.009043232
0.004153827
0.005757686
0.01181077
0.009151826
0.004186013
0.004217543
0.0118049
0.0117816
0.009263743
0.004219147
0.004227882
0.01180503
0.01176904
0.009380962
0.004227858
0.004234808
0.01180475
0.01175844
0.009508607
0.004234532
0.004241517
0.01180398
0.01174695
0.009652646
0.004241272
0.004248961
0.01180333
0.01173527
0.009822332
0.004248819
0.004258151
0.01180314
0.01171989
0.004258097
0.01180365
0.001875921
0.004672337
0.01181105
0.00471557
0.01183663
0.01181791
0.004825568
0.01184379
0.0118185
0.005625808
0.01180524
0.005806405
0.01180587
0.004824035
0.01183522
0.01181417
0.004833608
0.01183498
0.01181396
0.005809188
0.01180539
0.005816607
0.01180535
0.004834007
0.01183488
0.01181307
0.004836477
0.0118349
0.011813
0.00581763
0.01180511
0.005819775
0.01180528
0.004835806
0.01183482
0.01181295
0.004835895
0.0118349
0.01181296
0.005819914
0.01180521
0.005820177
0.01180525
0.004836051
0.01183482
0.01181296
0.004835835
0.01183491
0.01181296
0.005820176
0.01180525
0.005819933
0.01180522
0.004834778
0.01183483
0.01181303
0.004832477
0.01183496
0.01181308
0.005819774
0.01180528
0.005817639
0.01180511
0.004832346
0.0118349
0.0118139
0.004825993
0.0118353
0.01181415
0.005816597
0.01180534
0.005809171
0.01180539
0.004827264
0.0118438
0.01181856
0.004715223
0.01183672
0.01181793
0.005806245
0.01180586
0.005619286
0.01180524
0.004953182
0.01185406
0.01181675
0.001940092
0.004892214
0.01172395
0.01179836
0.001950041
0.002007812
0.004904879
0.0117302
0.0117888
0.002020018
0.002027604
0.004908299
0.01172143
0.0117879
0.00202866
0.002029692
0.004838885
0.01172419
0.01179006
0.002029594
0.002029758
0.004549686
0.01172538
0.01178736
0.002028478
0.002028523
0.00490069
0.01171414
0.01179053
0.002029373
0.002029827
0.01171541
0.002029436
0.01064942
0.01183472
0.01063296
0.001952066
0.002015901
0.01065951
0.01183117
0.01062823
0.002036938
0.002035831
0.01064274
0.01182622
0.01064619
0.002029547
0.002029189
0.01064885
0.01182632
0.01064919
0.002029224
0.002029303
0.0106544
0.01182635
0.01065442
0.002029189
0.002029227
0.01066289
0.01182645
0.01066285
0.002028988
0.002029019
0.01067552
0.01182658
0.01067544
0.002028648
0.002028692
0.01069338
0.01182679
0.01069346
0.002028164
0.002028207
0.0107179
0.01182429
0.01071333
0.00202742
0.002027273
0.01073997
0.01182551
0.01073804
0.002024953
0.002026132
0.0107869
0.01182696
0.01078264
0.002032058
0.002035801
0.01091246
0.01182756
0.01091249
0.002028567
0.0020313
0.01100201
0.01182869
0.01100162
0.002023233
0.002023394
0.01122247
0.01183492
0.01122222
0.002011902
0.002011349
0.01136683
0.01182531
0.01136474
0.00200997
0.002015893
0.01152768
0.01181554
0.0115382
0.002002835
0.001943292
0.01183369
0.01181977
0.001922104
0.003986673
0.005749372
0.01181083
0.009036993
0.004147039
0.01180497
0.01178127
0.009078777
0.009552076
0.004137555
0.004208466
0.01180504
0.01176891
0.009346437
0.009575066
0.004217515
0.00422782
0.01180471
0.01175782
0.009462134
0.009571726
0.004227755
0.004224977
0.01180396
0.01174796
0.01006428
0.004181172
0.004188782
0.01180304
0.0117364
0.004231366
0.00424885
0.01180322
0.01171836
0.009799768
0.004248807
0.004254728
0.01180294
0.009867131
0.004232709
0.01181097
0.001876706
0.01178178
0.00394373
0.009979551
0.004117815
0.009968868
0.00413899
0.00999874
0.004161509
0.009988253
0.004172067
0.01000038
0.004164766
0.009989508
0.004173414
0.01000546
0.00416433
0.009994618
0.004173048
0.01001376
0.004163639
0.01000321
0.004172392
0.01002659
0.004162621
0.01001625
0.004171374
0.01004535
0.00416114
0.01003513
0.004169881
0.01007156
0.00415907
0.01006175
0.004167838
0.01010758
0.004156247
0.01009846
0.004165214
0.01015562
0.004152519
0.01014738
0.004161515
0.01021876
0.004147696
0.01021152
0.004156723
0.01030007
0.004141594
0.010294
0.004150652
0.01040312
0.004134007
0.01039922
0.004143113
0.01053131
0.004124681
0.0105296
0.004133849
0.01068737
0.004113404
0.01068837
0.004122645
0.0108738
0.004100085
0.01087659
0.004109218
0.01109437
0.004084231
0.01109304
0.004092675
0.01133557
0.004062142
0.01132946
0.00405454
0.0115614
0.00399145
0.01154919
0.00389799
0.001984671
0.004009852
0.004029955
0.01157328
0.01157183
0.01182529
0.01183215
0.002009609
0.004041555
0.004052652
0.01140259
0.0114067
0.01182859
0.0118392
0.002016511
0.004065044
0.004076473
0.01121833
0.01122962
0.01183175
0.01184793
0.002022023
0.004090415
0.004102476
0.011022
0.01103903
0.01183582
0.01186044
0.002028174
0.004118659
0.004132807
0.01080291
0.01082797
0.01184117
0.01188159
0.002035239
0.004152456
0.004170196
0.01055581
0.01059529
0.01184955
0.01192375
0.004194958
0.0102706
0.01186574
0.0130243
0.008867347
0.0118205
0.009123292
0.01657564
0.009103339
0.008959624
0.01183179
0.01183998
0.01649621
0.008973042
0.01671889
0.009217257
0.008997732
0.0118429
0.01184752
0.01666836
0.009009168
0.01686206
0.009332397
0.009037609
0.01184946
0.01185191
0.01681976
0.009045642
0.01701014
0.009455281
0.009077829
0.01185079
0.01185062
0.01697369
0.009083253
0.01717514
0.009591381
0.009121344
0.01184576
0.01184091
0.01713988
0.009124372
0.01737389
0.009747345
0.009171445
0.01183183
0.01181723
0.017337
0.009172771
0.009234135
0.01180985
0.01758739
0.01179389
0.003867108
0.01179826
0.003974999
0.0116964
0.01170041
0.01183502
0.01181942
0.01182662
0.01183636
0.01182059
0.01824542
0.01182754
0.0182175
0.01182345
0.01169284
0.01169339
0.01182307
0.01182146
0.01182007
0.01182444
0.01182168
0.01824713
0.01182267
0.01824691
0.01182244
0.01169208
0.01169168
0.01182455
0.01182121
0.01182007
0.01182495
0.01182111
0.01824532
0.0118224
0.0182471
0.01182185
0.01169142
0.01169107
0.01182542
0.011821
0.01182014
0.01182552
0.01182101
0.01824627
0.01182177
0.01824601
0.01182175
0.0116917
0.01169118
0.01182551
0.01182101
0.01182014
0.01182543
0.011821
0.01824615
0.01182175
0.01824593
0.01182176
0.01169138
0.01169136
0.01182495
0.01182111
0.01181998
0.01182457
0.01182121
0.01824651
0.01182181
0.01824578
0.01182193
0.01169205
0.01169131
0.01182442
0.01182168
0.01181988
0.01182308
0.01182147
0.01824821
0.01182209
0.01824772
0.01182272
0.01169374
0.01169175
0.01183601
0.01182057
0.01182555
0.01183487
0.01181942
0.01824597
0.01182471
0.01824657
0.01182546
0.01175507
0.01171189
0.01083475
0.01182594
0.01083489
0.002038636
0.002038053
0.01110298
0.01184809
0.01110003
0.002025812
0.002018448
0.01157247
0.0118254
0.01182959
0.001927596
0.001981665
0.004004912
0.003381863
0.01140612
0.01182964
0.01183738
0.002000743
0.002007932
0.003635255
0.003467632
0.01122618
0.01183305
0.01185205
0.002015938
0.002021205
0.003651047
0.003707985
0.01105654
0.0118366
0.011804
0.002042021
0.002060508
0.003724879
0.004293845
0.01086274
0.01178669
0.01178334
0.002073542
0.002071809
0.004301961
0.004305473
0.0105978
0.01177804
0.01198289
0.002069176
0.002046979
0.004301909
0.003766784
0.01187146
0.002046823
0.004198526
0.01756755
0.01182329
0.01818704
0.01182596
0.009958854
0.004100439
0.009943713
0.003982155
0.01175523
0.01171191
0.009978296
0.004159073
0.009975853
0.004151643
0.009996726
0.004164832
0.009985946
0.004173034
0.01000161
0.004164712
0.009990206
0.004173428
0.0100075
0.004164284
0.009996441
0.004173001
0.01001631
0.004163595
0.01000582
0.004172342
0.01002989
0.004162548
0.01001985
0.004171335
0.01004975
0.00416102
0.01004031
0.004169847
0.01007749
0.004158887
0.01006895
0.00416769
0.01011527
0.004155989
0.01010787
0.004164764
0.0101657
0.004152138
0.01015974
0.004160888
0.01023146
0.004147134
0.01022761
0.004155866
0.01031557
0.004140796
0.01031452
0.004149496
0.01042113
0.004132853
0.01042394
0.004141357
0.01055206
0.00412313
0.01055964
0.004131607
0.01071182
0.004111459
0.01072438
0.004119854
0.01090251
0.004097302
0.01091956
0.004105741
0.01112628
0.004077435
0.01114554
0.004087994
0.01137756
0.004017982
0.01139177
0.00403952
0.01183143
0.003824543
0.01182846
0.003924356
0.01598097
0.008980484
0.008962427
0.01183875
0.01184607
0.01646175
0.008990148
0.01180222
0.003902505
0.0118035
0.003820371
0.01757644
0.01182397
0.01182668
0.01818259
0.01658645
0.009136601
0.008995029
0.01185988
0.01183493
0.01665352
0.008975331
0.0167352
0.009249238
0.009032631
0.01186866
0.01184412
0.01679814
0.009013444
0.0168851
0.009365025
0.009070488
0.01187443
0.01184895
0.0169456
0.009052458
0.01704168
0.009489749
0.009110773
0.01187522
0.01184742
0.01710342
0.009092571
0.01721854
0.009628658
0.009156618
0.01186909
0.01183648
0.01728657
0.009137032
0.0174351
0.009788652
0.009213128
0.01185805
0.01181477
0.0175143
0.00919049
0.01169358
0.01169109
0.01824602
0.01182467
0.01182604
0.01824663
0.01169179
0.01169181
0.01824828
0.0118221
0.01182272
0.01824706
0.01169171
0.01169142
0.01824579
0.01182182
0.01182193
0.01824534
0.0116916
0.01169112
0.01824587
0.01182174
0.01182176
0.01824605
0.01169173
0.01169139
0.01824622
0.01182176
0.01182175
0.01824658
0.01169134
0.01169093
0.01824579
0.01182238
0.01182185
0.01824694
0.01169312
0.0116937
0.01824731
0.01182266
0.01182243
0.01824737
0.01169638
0.01170043
0.01824537
0.01182485
0.01182331
0.01822208
0.01178229
0.00394184
0.01164641
0.00410552
0.01173787
0.003981175
0.009959463
0.004099608
0.009947367
0.003981812
0.01177498
0.004119698
0.01161235
0.004136847
0.01179118
0.004168579
0.01173781
0.004148687
0.01178109
0.004165903
0.01160888
0.004167902
0.0117998
0.004177726
0.01173776
0.004171237
0.01178327
0.004170888
0.01160111
0.004170269
0.01179917
0.00417884
0.01173677
0.004173008
0.01178516
0.004171666
0.01160091
0.004170777
0.01180105
0.004176903
0.01175254
0.004172871
0.01167709
0.004166875
0.0115621
0.004198212
0.0118211
0.004206241
0.004919696
0.01175978
0.004294578
0.01178117
0.00416629
0.01160134
0.004168651
0.01179692
0.004178667
0.01173733
0.004172235
0.004171041
0.01159536
0.009989559
0.004116817
0.009970966
0.004138986
0.009943562
0.0115628
0.00421933
0.00989682
0.004170085
0.009865734
0.01151386
0.004242954
0.009849005
0.01152077
0.004254107
0.009918184
0.004183253
0.01157288
0.0099525
0.004233873
0.01000209
0.004164567
0.01000139
0.004172568
0.01000337
0.004164248
0.009989864
0.004172838
0.01000522
0.004163865
0.009994633
0.004172607
0.01000756
0.004163816
0.009996444
0.004172529
0.01001381
0.004163162
0.01000326
0.004171931
0.01001638
0.004163135
0.01000591
0.0041719
0.0100266
0.004162165
0.01001627
0.004170932
0.01002991
0.004162089
0.01001989
0.004170893
0.01004536
0.004160684
0.01003514
0.004169439
0.01004977
0.004160557
0.01004037
0.004169402
0.01007155
0.004158614
0.01006175
0.00416739
0.01007756
0.004158373
0.01006947
0.00416723
0.01011048
0.004155693
0.01009902
0.004164233
0.01011651
0.004149841
0.01012515
0.004162717
0.0100215
0.004179971
0.01008646
0.01162348
0.004281979
0.01014294
0.004163625
0.01019013
0.01159694
0.004211994
0.01014884
0.004185346
0.01159497
0.010164
0.004212824
0.01109192
0.004108235
0.01106845
0.004104779
0.01108168
0.01179212
0.004154243
0.01177891
0.01109113
0.004143762
0.01183184
0.003825879
0.01182789
0.003922024
0.01302117
0.008879279
0.01182034
0.009122526
0.0159832
0.01183704
0.00898419
0.008970882
0.01184705
0.01680536
0.008989699
0.0118007
0.006962615
0.003932622
0.01180341
0.003835284
0.01183235