/*--------------------------------*- C++ -*----------------------------------*\
  =========                 |
  \\      /  F ield         | OpenFOAM: The Open Source CFD Toolbox
   \\    /   O peration     | Website:  https://openfoam.org
    \\  /    A nd           | Version:  7
     \\/     M anipulation  |
\*---------------------------------------------------------------------------*/
FoamFile
{
    version     2.0;
    format      ascii;
    class       volScalarField;
    location    "0.03";
    object      k;
}
// * * * * * * * * * * * * * * * * * * * * * * * * * * * * * * * * * * * * * //

dimensions      [0 2 -2 0 0 0 0];

internalField   nonuniform List<scalar> 
109978
(
0.003740771
0.003740427
0.003740376
0.003740343
0.003740301
0.003740251
0.00374068
0.003740204
0.003740095
0.003740051
0.003740001
0.003739943
0.003740703
0.003740218
0.003740089
0.003740038
0.003739989
0.003739935
0.003740735
0.003740256
0.00374013
0.003740078
0.003740029
0.003739976
0.003740782
0.003740308
0.003740182
0.00374013
0.003740081
0.003740028
0.003740841
0.003740371
0.003740245
0.003740193
0.003740145
0.003740091
0.003740912
0.003740445
0.003740319
0.003740268
0.003740219
0.003740165
0.003740993
0.003740531
0.003740405
0.003740354
0.003740305
0.003740251
0.003741086
0.003740628
0.003740503
0.003740451
0.003740402
0.003740348
0.00374119
0.003740737
0.003740612
0.00374056
0.003740511
0.003740457
0.003741305
0.003740859
0.003740733
0.003740682
0.003740632
0.003740578
0.003741432
0.003740992
0.003740867
0.003740816
0.003740766
0.003740711
0.003741571
0.003741138
0.003741014
0.003740962
0.003740912
0.003740857
0.003741723
0.003741298
0.003741174
0.003741122
0.003741071
0.003741015
0.003741887
0.003741471
0.003741347
0.003741295
0.003741244
0.003741186
0.003742065
0.003741658
0.003741535
0.003741482
0.00374143
0.003741372
0.003742256
0.00374186
0.003741737
0.003741683
0.00374163
0.003741572
0.003742462
0.003742077
0.003741954
0.0037419
0.003741845
0.003741787
0.003742682
0.003742309
0.003742187
0.003742131
0.003742076
0.003742017
0.003742919
0.003742559
0.003742436
0.003742379
0.003742323
0.003742263
0.003743171
0.003742826
0.003742703
0.003742645
0.003742587
0.003742526
0.003743442
0.003743112
0.00374299
0.00374293
0.003742871
0.003742808
0.003641702
0.00374342
0.003743297
0.003743235
0.003743175
0.003743109
0.003739984
0.003739875
0.003739828
0.003739791
0.003739741
0.00373968
0.003641612
0.003641352
0.003641349
0.003641349
0.003641348
0.003641348
0.003641583
0.003641346
0.003641345
0.003641344
0.003641344
0.003641344
0.003641583
0.003641347
0.003641346
0.003641346
0.003641345
0.003641345
0.003641584
0.003641348
0.003641347
0.003641347
0.003641347
0.003641347
0.003641587
0.003641349
0.003641349
0.003641349
0.003641349
0.003641349
0.00364159
0.003641351
0.003641351
0.003641351
0.003641351
0.003641351
0.003641593
0.003641353
0.003641353
0.003641353
0.003641353
0.003641354
0.003641597
0.003641355
0.003641355
0.003641355
0.003641356
0.003641357
0.003641602
0.003641357
0.003641357
0.003641358
0.003641359
0.003641359
0.003641607
0.003641359
0.00364136
0.003641361
0.003641362
0.003641363
0.003641612
0.003641362
0.003641363
0.003641364
0.003641365
0.003641366
0.003641618
0.003641365
0.003641366
0.003641367
0.003641369
0.00364137
0.003641625
0.003641369
0.003641369
0.003641371
0.003641372
0.003641374
0.003641632
0.003641372
0.003641373
0.003641375
0.003641377
0.003641378
0.00364164
0.003641376
0.003641377
0.003641379
0.003641381
0.003641383
0.003641649
0.00364138
0.003641382
0.003641384
0.003641386
0.003641388
0.003641658
0.003641385
0.003641386
0.003641388
0.003641391
0.003641393
0.003641668
0.00364139
0.003641391
0.003641394
0.003641396
0.003641399
0.003641678
0.003641395
0.003641397
0.003641399
0.003641402
0.003641405
0.00364169
0.0036414
0.003641403
0.003641405
0.003641409
0.003641411
0.003641702
0.003641407
0.003641409
0.003641412
0.003641415
0.003641418
0.003641715
0.003641413
0.003641416
0.003641419
0.003641423
0.003641426
0.003641737
0.00364142
0.003641423
0.003641427
0.00364143
0.003641434
0.003740062
0.003740111
0.003740035
0.003739986
0.003739933
0.00373987
0.003641578
0.003641345
0.003641343
0.003641343
0.003641343
0.003641342
0.003641543
0.003641342
0.003641341
0.00364134
0.00364134
0.003641339
0.003641543
0.003641343
0.003641343
0.003641342
0.003641341
0.003641341
0.003641545
0.003641344
0.003641344
0.003641343
0.003641343
0.003641343
0.003641547
0.003641346
0.003641346
0.003641345
0.003641345
0.003641345
0.00364155
0.003641347
0.003641347
0.003641347
0.003641347
0.003641347
0.003641553
0.003641349
0.003641349
0.003641349
0.003641349
0.003641349
0.003641556
0.003641351
0.003641352
0.003641352
0.003641352
0.003641352
0.00364156
0.003641353
0.003641354
0.003641354
0.003641354
0.003641355
0.003641564
0.003641356
0.003641357
0.003641357
0.003641357
0.003641358
0.003641569
0.003641359
0.00364136
0.00364136
0.003641361
0.003641361
0.003641575
0.003641362
0.003641363
0.003641363
0.003641364
0.003641365
0.00364158
0.003641365
0.003641366
0.003641367
0.003641368
0.003641369
0.003641587
0.003641368
0.00364137
0.003641371
0.003641372
0.003641373
0.003641594
0.003641372
0.003641374
0.003641375
0.003641376
0.003641378
0.003641601
0.003641376
0.003641378
0.00364138
0.003641381
0.003641383
0.003641609
0.003641381
0.003641383
0.003641384
0.003641386
0.003641388
0.003641618
0.003641385
0.003641388
0.00364139
0.003641392
0.003641394
0.003641627
0.003641391
0.003641393
0.003641395
0.003641397
0.0036414
0.003641637
0.003641396
0.003641399
0.003641401
0.003641404
0.003641406
0.003641648
0.003641402
0.003641405
0.003641408
0.00364141
0.003641413
0.003641659
0.003641408
0.003641412
0.003641415
0.003641417
0.00364142
0.003641671
0.003641415
0.003641419
0.003641422
0.003641425
0.003641428
0.003740083
0.003740149
0.003740061
0.003740008
0.003739953
0.003739887
0.003641577
0.003641345
0.003641343
0.003641343
0.003641342
0.003641342
0.003641542
0.003641341
0.003641341
0.00364134
0.00364134
0.003641339
0.003641543
0.003641342
0.003641342
0.003641342
0.003641341
0.003641341
0.003641544
0.003641343
0.003641344
0.003641343
0.003641343
0.003641343
0.003641547
0.003641345
0.003641345
0.003641345
0.003641345
0.003641345
0.003641549
0.003641346
0.003641347
0.003641347
0.003641347
0.003641347
0.003641552
0.003641348
0.003641349
0.003641349
0.003641349
0.003641349
0.003641556
0.00364135
0.003641351
0.003641351
0.003641352
0.003641352
0.003641559
0.003641352
0.003641353
0.003641354
0.003641355
0.003641355
0.003641564
0.003641355
0.003641356
0.003641357
0.003641358
0.003641358
0.003641569
0.003641357
0.003641359
0.00364136
0.003641361
0.003641362
0.003641574
0.00364136
0.003641362
0.003641363
0.003641364
0.003641365
0.00364158
0.003641363
0.003641365
0.003641367
0.003641368
0.003641369
0.003641586
0.003641367
0.003641369
0.003641371
0.003641372
0.003641373
0.003641593
0.003641371
0.003641373
0.003641375
0.003641377
0.003641378
0.003641601
0.003641375
0.003641377
0.003641379
0.003641381
0.003641383
0.003641609
0.003641379
0.003641382
0.003641384
0.003641386
0.003641388
0.003641617
0.003641384
0.003641387
0.00364139
0.003641392
0.003641394
0.003641627
0.003641389
0.003641392
0.003641395
0.003641397
0.0036414
0.003641637
0.003641395
0.003641398
0.003641401
0.003641404
0.003641406
0.003641647
0.003641401
0.003641404
0.003641408
0.00364141
0.003641413
0.003641659
0.003641407
0.003641411
0.003641414
0.003641417
0.00364142
0.003641671
0.003641414
0.003641418
0.003641422
0.003641425
0.003641428
0.003740075
0.003740148
0.003740063
0.003740002
0.003739943
0.003739876
0.003641577
0.003641344
0.003641343
0.003641343
0.003641342
0.003641342
0.003641542
0.00364134
0.00364134
0.00364134
0.00364134
0.003641339
0.003641543
0.003641341
0.003641341
0.003641341
0.003641341
0.003641341
0.003641544
0.003641342
0.003641343
0.003641343
0.003641343
0.003641343
0.003641546
0.003641344
0.003641344
0.003641345
0.003641345
0.003641345
0.003641548
0.003641345
0.003641346
0.003641347
0.003641347
0.003641347
0.003641551
0.003641347
0.003641348
0.003641349
0.003641349
0.003641349
0.003641555
0.003641349
0.00364135
0.003641351
0.003641352
0.003641352
0.003641559
0.003641351
0.003641352
0.003641354
0.003641354
0.003641355
0.003641563
0.003641354
0.003641355
0.003641356
0.003641357
0.003641358
0.003641568
0.003641356
0.003641358
0.003641359
0.003641361
0.003641362
0.003641573
0.003641359
0.003641361
0.003641363
0.003641364
0.003641365
0.003641579
0.003641362
0.003641365
0.003641366
0.003641368
0.003641369
0.003641585
0.003641366
0.003641368
0.00364137
0.003641372
0.003641373
0.003641592
0.00364137
0.003641372
0.003641374
0.003641376
0.003641378
0.0036416
0.003641374
0.003641376
0.003641379
0.003641381
0.003641383
0.003641608
0.003641378
0.003641381
0.003641384
0.003641386
0.003641388
0.003641616
0.003641383
0.003641386
0.003641389
0.003641392
0.003641394
0.003641626
0.003641388
0.003641391
0.003641395
0.003641397
0.0036414
0.003641636
0.003641393
0.003641397
0.003641401
0.003641404
0.003641406
0.003641646
0.003641399
0.003641403
0.003641407
0.00364141
0.003641413
0.003641658
0.003641406
0.00364141
0.003641414
0.003641417
0.00364142
0.00364167
0.003641413
0.003641417
0.003641421
0.003641425
0.003641428
0.003740078
0.003740151
0.003740051
0.003739997
0.003739939
0.003739873
0.003641577
0.003641344
0.003641343
0.003641343
0.003641342
0.003641342
0.003641542
0.00364134
0.00364134
0.00364134
0.00364134
0.003641339
0.003641542
0.003641341
0.003641341
0.003641341
0.003641341
0.003641341
0.003641543
0.003641342
0.003641343
0.003641343
0.003641343
0.003641343
0.003641546
0.003641344
0.003641344
0.003641345
0.003641345
0.003641345
0.003641548
0.003641345
0.003641346
0.003641347
0.003641347
0.003641347
0.003641551
0.003641347
0.003641348
0.003641349
0.003641349
0.003641349
0.003641555
0.003641349
0.00364135
0.003641351
0.003641352
0.003641352
0.003641559
0.003641351
0.003641352
0.003641354
0.003641354
0.003641355
0.003641563
0.003641354
0.003641355
0.003641356
0.003641357
0.003641358
0.003641568
0.003641356
0.003641358
0.003641359
0.003641361
0.003641362
0.003641573
0.003641359
0.003641361
0.003641363
0.003641364
0.003641365
0.003641579
0.003641362
0.003641365
0.003641366
0.003641368
0.003641369
0.003641585
0.003641366
0.003641368
0.00364137
0.003641372
0.003641373
0.003641592
0.00364137
0.003641372
0.003641374
0.003641376
0.003641378
0.0036416
0.003641374
0.003641376
0.003641379
0.003641381
0.003641383
0.003641608
0.003641378
0.003641381
0.003641384
0.003641386
0.003641388
0.003641616
0.003641383
0.003641386
0.003641389
0.003641392
0.003641394
0.003641626
0.003641388
0.003641391
0.003641395
0.003641397
0.0036414
0.003641636
0.003641393
0.003641397
0.003641401
0.003641404
0.003641406
0.003641646
0.003641399
0.003641403
0.003641407
0.00364141
0.003641413
0.003641658
0.003641406
0.00364141
0.003641414
0.003641417
0.00364142
0.00364167
0.003641413
0.003641417
0.003641421
0.003641425
0.003641428
0.003740075
0.003740148
0.003740045
0.003739994
0.003739941
0.003739878
0.003641578
0.003641345
0.003641343
0.003641343
0.003641342
0.003641342
0.003641542
0.003641341
0.003641341
0.00364134
0.00364134
0.003641339
0.003641543
0.003641342
0.003641342
0.003641342
0.003641341
0.003641341
0.003641544
0.003641343
0.003641343
0.003641343
0.003641343
0.003641343
0.003641546
0.003641345
0.003641345
0.003641345
0.003641345
0.003641345
0.003641549
0.003641346
0.003641347
0.003641347
0.003641347
0.003641347
0.003641552
0.003641348
0.003641349
0.003641349
0.003641349
0.003641349
0.003641555
0.00364135
0.003641351
0.003641351
0.003641352
0.003641352
0.003641559
0.003641352
0.003641353
0.003641354
0.003641354
0.003641355
0.003641564
0.003641354
0.003641356
0.003641357
0.003641357
0.003641358
0.003641568
0.003641357
0.003641359
0.00364136
0.003641361
0.003641362
0.003641574
0.00364136
0.003641362
0.003641363
0.003641364
0.003641365
0.00364158
0.003641363
0.003641365
0.003641367
0.003641368
0.003641369
0.003641586
0.003641367
0.003641369
0.003641371
0.003641372
0.003641373
0.003641593
0.003641371
0.003641373
0.003641375
0.003641376
0.003641378
0.0036416
0.003641375
0.003641377
0.003641379
0.003641381
0.003641383
0.003641608
0.003641379
0.003641382
0.003641384
0.003641386
0.003641388
0.003641617
0.003641384
0.003641387
0.003641389
0.003641392
0.003641394
0.003641626
0.003641389
0.003641392
0.003641395
0.003641397
0.0036414
0.003641636
0.003641394
0.003641398
0.003641401
0.003641404
0.003641406
0.003641647
0.0036414
0.003641404
0.003641407
0.00364141
0.003641413
0.003641658
0.003641407
0.003641411
0.003641414
0.003641417
0.00364142
0.00364167
0.003641414
0.003641418
0.003641422
0.003641425
0.003641428
0.003740054
0.003740138
0.003740062
0.003740011
0.003739958
0.003739894
0.003641578
0.003641345
0.003641343
0.003641343
0.003641343
0.003641342
0.003641542
0.003641341
0.003641341
0.00364134
0.00364134
0.003641339
0.003641543
0.003641343
0.003641342
0.003641342
0.003641341
0.003641341
0.003641544
0.003641344
0.003641344
0.003641343
0.003641343
0.003641343
0.003641546
0.003641346
0.003641345
0.003641345
0.003641345
0.003641345
0.003641549
0.003641347
0.003641347
0.003641347
0.003641347
0.003641347
0.003641552
0.003641349
0.003641349
0.003641349
0.003641349
0.003641349
0.003641555
0.003641351
0.003641351
0.003641351
0.003641352
0.003641352
0.003641559
0.003641353
0.003641354
0.003641354
0.003641354
0.003641355
0.003641564
0.003641356
0.003641356
0.003641357
0.003641357
0.003641358
0.003641569
0.003641358
0.003641359
0.00364136
0.003641361
0.003641361
0.003641574
0.003641361
0.003641362
0.003641363
0.003641364
0.003641365
0.00364158
0.003641364
0.003641366
0.003641367
0.003641368
0.003641369
0.003641586
0.003641368
0.003641369
0.003641371
0.003641372
0.003641373
0.003641593
0.003641372
0.003641374
0.003641375
0.003641376
0.003641378
0.0036416
0.003641376
0.003641378
0.003641379
0.003641381
0.003641383
0.003641608
0.00364138
0.003641382
0.003641384
0.003641386
0.003641388
0.003641617
0.003641385
0.003641388
0.003641389
0.003641392
0.003641394
0.003641626
0.00364139
0.003641393
0.003641395
0.003641397
0.0036414
0.003641636
0.003641396
0.003641399
0.003641401
0.003641404
0.003641406
0.003641647
0.003641402
0.003641405
0.003641407
0.00364141
0.003641413
0.003641658
0.003641408
0.003641412
0.003641414
0.003641417
0.00364142
0.00364167
0.003641415
0.003641419
0.003641422
0.003641425
0.003641428
0.003740018
0.003739982
0.003739956
0.003739911
0.003739862
0.003739801
0.003641585
0.003641351
0.003641349
0.003641348
0.003641348
0.003641348
0.003641549
0.003641345
0.003641345
0.003641344
0.003641344
0.003641344
0.003641551
0.003641346
0.003641345
0.003641345
0.003641345
0.003641345
0.003641552
0.003641347
0.003641347
0.003641347
0.003641347
0.003641347
0.003641555
0.003641349
0.003641348
0.003641349
0.003641349
0.003641349
0.003641557
0.00364135
0.00364135
0.00364135
0.003641351
0.003641351
0.00364156
0.003641352
0.003641352
0.003641353
0.003641353
0.003641354
0.003641564
0.003641354
0.003641354
0.003641355
0.003641356
0.003641356
0.003641568
0.003641356
0.003641357
0.003641358
0.003641359
0.003641359
0.003641573
0.003641359
0.003641359
0.00364136
0.003641362
0.003641363
0.003641578
0.003641361
0.003641362
0.003641364
0.003641365
0.003641366
0.003641583
0.003641364
0.003641365
0.003641367
0.003641368
0.00364137
0.003641589
0.003641368
0.003641369
0.003641371
0.003641372
0.003641374
0.003641596
0.003641371
0.003641373
0.003641374
0.003641376
0.003641378
0.003641603
0.003641375
0.003641377
0.003641379
0.003641381
0.003641383
0.003641611
0.003641379
0.003641381
0.003641383
0.003641386
0.003641388
0.003641619
0.003641384
0.003641386
0.003641388
0.003641391
0.003641393
0.003641628
0.003641389
0.003641391
0.003641394
0.003641396
0.003641399
0.003641637
0.003641394
0.003641396
0.003641399
0.003641402
0.003641405
0.003641648
0.0036414
0.003641402
0.003641405
0.003641408
0.003641411
0.003641659
0.003641406
0.003641408
0.003641412
0.003641415
0.003641418
0.00364167
0.003641412
0.003641415
0.003641419
0.003641422
0.003641426
0.003641737
0.003641419
0.003641423
0.003641426
0.00364143
0.003641434
0.003726508
0.003730623
0.003730717
0.003730593
0.003730407
0.003730177
0.003642417
0.00364155
0.003641554
0.003641554
0.003641553
0.003641552
0.003641554
0.003642335
0.003641554
0.003641551
0.003641552
0.00364155
0.003641549
0.003641551
0.003642338
0.003641546
0.003641547
0.003641547
0.003641547
0.003641547
0.003641549
0.003642342
0.003641548
0.003641549
0.00364155
0.00364155
0.00364155
0.003641553
0.003642348
0.003641551
0.003641552
0.003641553
0.003641553
0.003641553
0.003641557
0.003642356
0.003641554
0.003641555
0.003641556
0.003641557
0.003641558
0.003641562
0.003642365
0.003641557
0.003641559
0.00364156
0.003641562
0.003641562
0.003641567
0.003642375
0.003641561
0.003641564
0.003641565
0.003641566
0.003641568
0.003641572
0.003642387
0.003641565
0.003641569
0.00364157
0.003641572
0.003641573
0.003641578
0.0036424
0.003641569
0.003641574
0.003641575
0.003641578
0.00364158
0.003641585
0.003642415
0.003641574
0.00364158
0.003641581
0.003641584
0.003641586
0.003641592
0.003642431
0.00364158
0.003641586
0.003641588
0.003641591
0.003641593
0.0036416
0.003642449
0.003641586
0.003641593
0.003641595
0.003641598
0.003641601
0.003641608
0.003642469
0.003641593
0.0036416
0.003641602
0.003641606
0.003641609
0.003641616
0.00364249
0.0036416
0.003641607
0.00364161
0.003641614
0.003641618
0.003641626
0.003642512
0.003641608
0.003641616
0.003641619
0.003641623
0.003641628
0.003641636
0.003642537
0.003641617
0.003641625
0.003641628
0.003641633
0.003641638
0.003641646
0.003642563
0.003641626
0.003641634
0.003641638
0.003641643
0.003641648
0.003641657
0.003642591
0.003641637
0.003641645
0.003641649
0.003641654
0.00364166
0.003641669
0.003642622
0.003641648
0.003641656
0.00364166
0.003641666
0.003641672
0.003641682
0.003642654
0.003641659
0.003641668
0.003641673
0.003641679
0.003641685
0.003641695
0.003642688
0.003641672
0.00364168
0.003641686
0.003641692
0.003641699
0.00364171
0.003642722
0.003743811
0.003641694
0.0036417
0.003641707
0.003641714
0.003641724
0.003733199
0.003729311
0.003642454
0.003641519
0.00373173
0.003731087
0.003642376
0.003641555
0.003642334
0.003641553
0.003731282
0.0037313
0.003642284
0.003641535
0.003642335
0.003641535
0.003731429
0.003731389
0.003642286
0.003641536
0.003642339
0.003641535
0.003731491
0.003731481
0.00364229
0.003641536
0.003642346
0.003641537
0.003731614
0.003731596
0.003642296
0.00364154
0.003642354
0.00364154
0.003731757
0.003731737
0.003642303
0.003641543
0.003642364
0.003641543
0.003731927
0.003731903
0.003642312
0.003641547
0.003642375
0.003641547
0.003732121
0.003732094
0.003642322
0.003641551
0.003642389
0.003641551
0.003732341
0.00373231
0.003642333
0.003641556
0.003642404
0.003641556
0.003732586
0.003732552
0.003642346
0.003641561
0.003642421
0.003641561
0.003732856
0.00373282
0.00364236
0.003641567
0.00364244
0.003641567
0.003733154
0.003733116
0.003642376
0.003641573
0.00364246
0.003641573
0.003733479
0.003733439
0.003642393
0.00364158
0.003642483
0.00364158
0.003733833
0.00373379
0.003642411
0.003641588
0.003642508
0.003641588
0.003734216
0.003734171
0.003642432
0.003641596
0.003642536
0.003641596
0.003734629
0.003734583
0.003642453
0.003641605
0.003642565
0.003641604
0.003735074
0.003735026
0.003642477
0.003641615
0.003642598
0.003641614
0.003735552
0.003735502
0.003642502
0.003641625
0.003642632
0.003641624
0.003736064
0.003736012
0.003642529
0.003641636
0.003642668
0.003641635
0.003736612
0.003736558
0.003642558
0.003641648
0.003642704
0.003641647
0.003737198
0.003737142
0.003642589
0.003641661
0.003642742
0.00364166
0.003737823
0.003737766
0.003642622
0.003641675
0.003642781
0.003641674
0.003738499
0.00364228
0.003642721
0.00364169
0.003642762
0.003641616
0.003729089
0.003642351
0.003641542
0.003729022
0.00364231
0.00364154
0.003729342
0.003642256
0.00364153
0.00372923
0.003642305
0.003641529
0.003729351
0.003642255
0.003641528
0.003729409
0.003642304
0.003641528
0.003729391
0.003642254
0.003641527
0.003729374
0.003642303
0.003641527
0.003729369
0.003642254
0.003641527
0.003729388
0.003642304
0.003641527
0.003729357
0.003642254
0.003641528
0.003729391
0.003642304
0.003641528
0.003729266
0.003642255
0.003641529
0.003729329
0.003642306
0.00364153
0.003728975
0.00364226
0.00364154
0.003729138
0.00364239
0.003641542
0.003729296
0.003642404
0.003641519
0.0037332
0.003641502
0.003642333
0.003641553
0.003731739
0.003731086
0.003641481
0.003642334
0.003641535
0.003731291
0.0037313
0.003641483
0.003642338
0.003641535
0.003731438
0.003731389
0.003641489
0.003642363
0.003641543
0.003731766
0.003731736
0.003641492
0.003642374
0.003641547
0.003731936
0.003731902
0.003641496
0.003642388
0.003641551
0.00373213
0.003732093
0.0036415
0.003642403
0.003641556
0.003732349
0.003732309
0.003641504
0.00364242
0.003641561
0.003732594
0.003732551
0.00364151
0.003642438
0.003641567
0.003732865
0.00373282
0.003641515
0.003642459
0.003641573
0.003733162
0.003733115
0.003641521
0.003642482
0.00364158
0.003733487
0.003733438
0.003641528
0.003642507
0.003641587
0.003733841
0.003733789
0.003641535
0.003642534
0.003641596
0.003734224
0.003734171
0.003641543
0.003642564
0.003641604
0.003734637
0.003734582
0.003641552
0.003642596
0.003641614
0.003735082
0.003735025
0.003641561
0.003642631
0.003641624
0.003735561
0.003735502
0.003641571
0.003642666
0.003641635
0.003736074
0.003736013
0.003641593
0.00364274
0.00364166
0.00373721
0.003737144
0.003641605
0.00364278
0.003641674
0.003737835
0.003737769
0.00364169
0.003642758
0.003641688
0.003738505
0.003642269
0.003642005
0.003721994
0.003733037
0.003734056
0.003726487
0.003730693
0.003641545
0.003641544
0.003733796
0.003734054
0.003730616
0.003730822
0.003641551
0.003641551
0.003733818
0.003733962
0.003730712
0.003730639
0.003641555
0.00364155
0.003733734
0.00373385
0.00373059
0.003730472
0.003641554
0.003641549
0.003733623
0.003733708
0.003730402
0.003730252
0.003641553
0.003641546
0.003733485
0.003730172
0.00364155
0.003641974
0.003718467
0.003641959
0.003718524
0.003641964
0.003718745
0.003641962
0.003718739
0.003641966
0.003718972
0.003641964
0.003718964
0.00364197
0.003719177
0.003641966
0.003719171
0.003641976
0.003719439
0.003641972
0.003719431
0.003641983
0.003719754
0.003641978
0.003719747
0.003641991
0.003720129
0.003641986
0.003720121
0.003642
0.003720562
0.003641995
0.003720553
0.00364201
0.003721054
0.003642005
0.003721044
0.003642022
0.003721606
0.003642016
0.003721595
0.003642035
0.003722219
0.003642029
0.003722207
0.003642049
0.003722894
0.003642043
0.003722881
0.003642065
0.003723634
0.003642058
0.003723619
0.003642082
0.003724439
0.003642075
0.003724423
0.003642101
0.003725312
0.003642093
0.003725294
0.003642121
0.003726256
0.003642113
0.003726237
0.003642144
0.003727272
0.003642134
0.003727252
0.003642167
0.003728365
0.003642157
0.003728342
0.003642193
0.003729536
0.003642183
0.003729512
0.003642221
0.00373079
0.00364221
0.003730763
0.003642251
0.003732131
0.003642239
0.003732101
0.003642283
0.003733562
0.003642271
0.003733529
0.003642318
0.003735087
0.003642304
0.003735049
0.003642011
0.003642021
0.003642014
0.003642007
0.003642017
0.003642014
0.003642013
0.003642011
0.003642015
0.003642012
0.003642013
0.003642013
0.003642017
0.003642011
0.003642015
0.003642014
0.003642009
0.003642037
0.003730669
0.003641544
0.003641544
0.003733039
0.003734057
0.003730797
0.00364155
0.003641551
0.003733798
0.003734054
0.003730614
0.003641554
0.00364155
0.003733821
0.003733963
0.003730448
0.003641552
0.003641549
0.003733737
0.003733852
0.003730227
0.003641551
0.003641546
0.003733626
0.003733708
0.003641548
0.003733489
0.003641483
0.003642345
0.003641537
0.0037315
0.00373148
0.003641486
0.003642353
0.00364154
0.003731623
0.003731595
0.003641582
0.003642702
0.003641646
0.003736622
0.003736559
0.003642293
0.003723953
0.003642388
0.003721159
0.003641891
0.003718913
0.003641965
0.003719349
0.003642013
0.003642034
0.003641961
0.003718608
0.003641966
0.003718612
0.003641964
0.003718851
0.003641961
0.003718824
0.003641967
0.003719051
0.003641964
0.003719036
0.003641971
0.003719278
0.003641969
0.003719259
0.003641977
0.003719563
0.003641976
0.003719544
0.003641984
0.003719903
0.003641983
0.003719883
0.003641993
0.003720302
0.003641992
0.003720281
0.003642002
0.00372076
0.003642002
0.003720737
0.003642013
0.003721276
0.003642013
0.003721252
0.003642025
0.003721853
0.003642026
0.003721828
0.003642038
0.003722491
0.00364204
0.003722465
0.003642053
0.003723192
0.003642055
0.003723165
0.003642069
0.003723958
0.003642072
0.00372393
0.003642086
0.003724791
0.00364209
0.003724762
0.003642105
0.003725692
0.00364211
0.003725663
0.003642126
0.003726665
0.003642131
0.003726635
0.003642148
0.003727711
0.003642155
0.003727682
0.003642172
0.003728834
0.00364218
0.003728806
0.003642199
0.003730037
0.003642207
0.00373001
0.003642227
0.003731323
0.003642237
0.003731298
0.003642257
0.003732698
0.003642268
0.003732675
0.00364229
0.003734163
0.003642302
0.003734145
0.003642324
0.00364411
0.003735707
0.003642215
0.003642013
0.00364201
0.003642014
0.003642005
0.003642016
0.003642009
0.003642012
0.003642011
0.003642017
0.003642011
0.003642013
0.003642008
0.003642014
0.003642011
0.003642009
0.003642016
0.003642003
0.003721998
0.003642294
0.003723953
0.003642388
0.003721163
0.003641892
0.003718915
0.003641966
0.003719354
0.003641974
0.003718466
0.003641958
0.003718523
0.003641961
0.00371861
0.003641967
0.003718612
0.003641964
0.003718744
0.003641961
0.003718739
0.003641964
0.003718853
0.003641962
0.003718825
0.003641966
0.00371897
0.003641963
0.003718964
0.003641983
0.003719755
0.003641978
0.003719748
0.003641984
0.003719905
0.003641984
0.003719883
0.003641991
0.003720128
0.003641985
0.003720121
0.003641993
0.003720304
0.003641993
0.003720281
0.003642
0.003720561
0.003641994
0.003720554
0.003642002
0.003720762
0.003642003
0.003720737
0.00364201
0.003721053
0.003642004
0.003721045
0.003642013
0.003721278
0.003642015
0.003721252
0.003642022
0.003721605
0.003642015
0.003721595
0.003642025
0.003721855
0.003642027
0.003721828
0.003642049
0.003722894
0.003642043
0.003722881
0.003642053
0.003723194
0.003642056
0.003723166
0.003642065
0.003723633
0.003642057
0.003723619
0.003642069
0.00372396
0.003642073
0.003723931
0.003642101
0.003725313
0.003642093
0.003725295
0.003642105
0.003725694
0.003642111
0.003725664
0.003642127
0.003726667
0.003642133
0.003726637
0.003642143
0.003727272
0.003642133
0.003727252
0.003642148
0.003727713
0.003642156
0.003727683
0.003642168
0.003728364
0.003642156
0.003728351
0.003642283
0.003733578
0.003642271
0.003733537
0.00364229
0.003734175
0.003642305
0.003734156
0.003642318
0.0037351
0.003642303
0.003735062
0.003642324
0.003734543
0.003735726
0.003642215
0.003723687
0.003726761
0.003728395
0.003728662
0.003728528
0.003728659
0.00372873
0.003728802
0.003728195
0.003728843
0.003728686
0.00372884
0.003728827
0.00372873
0.00372858
0.003728364
0.003728534
0.003728475
0.003729004
0.003729317
0.003729402
0.003728238
0.003728366
0.003728664
0.003728566
0.003728026
0.003728612
0.003728756
0.003728836
0.003728492
0.003728778
0.003728556
0.003728665
0.003728559
0.003728786
0.00372884
0.003728387
0.003728811
0.003723653
0.003726763
0.003720632
0.00372101
0.003721412
0.003720128
0.00364281
0.003721866
0.003642824
0.003721662
0.003642814
0.003721569
0.003721546
0.003642775
0.003642795
0.003721563
0.003642777
0.003721508
0.003642796
0.003721615
0.003721574
0.003642776
0.003641966
0.003719052
0.003641964
0.003719037
0.003642821
0.003722368
0.003642805
0.003722331
0.003642829
0.003722627
0.00364281
0.003722563
0.003642833
0.00372273
0.003722696
0.003642815
0.003642843
0.003723033
0.003642823
0.003722967
0.003642846
0.003723152
0.00372312
0.003642829
0.003642876
0.003724022
0.003642855
0.003723949
0.00364288
0.003724173
0.003724145
0.003642865
0.003642035
0.003722217
0.003642028
0.003722215
0.003642039
0.00372249
0.00364204
0.003722473
0.003642922
0.003725439
0.003725414
0.003642913
0.003642942
0.003725965
0.003642917
0.003725881
0.003642946
0.003726166
0.003726143
0.003642935
0.003642968
0.00372674
0.003642942
0.003726652
0.003642082
0.003724438
0.003642074
0.003724423
0.003642086
0.003724789
0.00364209
0.003724763
0.003643001
0.003727821
0.003727802
0.003642997
0.003643028
0.003728495
0.003642999
0.003728398
0.00364212
0.003726255
0.003642112
0.003726236
0.003642173
0.003728843
0.003642182
0.003728813
0.003642193
0.003729544
0.003642182
0.00372952
0.003642199
0.003730046
0.003642209
0.003730019
0.003642251
0.003732143
0.003642239
0.003732114
0.003642258
0.003732711
0.003642269
0.003732689
0.003643279
0.003735977
0.003735972
0.003643305
0.003643329
0.003737074
0.003643285
0.003736934
0.003643331
0.003737482
0.003737484
0.003643361
0.003643385
0.003738612
0.003738508
0.003643338
0.003728153
0.003727739
0.003728819
0.003728951
0.003728801
0.003728852
0.003727926
0.003728463
0.003728534
0.003728628
0.003728248
0.003728267
0.003728339
0.003728582
0.003728893
0.003728454
0.003728669
0.003728917
0.003728913
0.003728334
0.003723566
0.003642113
0.003723322
0.003642341
0.003724448
0.00372286
0.003642143
0.003642278
0.003723656
0.003723621
0.003642249
0.003642079
0.003724486
0.003722916
0.003642152
0.003642266
0.003723622
0.003723461
0.003642238
0.003642114
0.003724273
0.003722745
0.003642151
0.003642264
0.003723435
0.003723224
0.003642232
0.003642117
0.003724002
0.003722514
0.003642147
0.003642258
0.003723182
0.003722933
0.003642225
0.003642115
0.003723671
0.003722228
0.003642142
0.003642249
0.003722868
0.003642217
0.003642111
0.003719177
0.003641966
0.003719174
0.003641969
0.003719281
0.003719259
0.00364197
0.00364197
0.003719438
0.003719433
0.003641976
0.003641971
0.003719561
0.003641976
0.003719546
0.003641976
0.003730799
0.003642211
0.003730775
0.003642221
0.003731334
0.003642238
0.003731311
0.003642225
0.003728947
0.003728522
0.003728708
0.003728903
0.003728831
0.003728446
0.003728706
0.003728827
0.003728759
0.003728336
0.003728811
0.003728716
0.003728618
0.003728682
0.003728458
0.003728337
0.003728452
0.003728767
0.003728217
0.00372752
0.003721619