/*--------------------------------*- C++ -*----------------------------------*\
  =========                 |
  \\      /  F ield         | OpenFOAM: The Open Source CFD Toolbox
   \\    /   O peration     | Website:  https://openfoam.org
    \\  /    A nd           | Version:  7
     \\/     M anipulation  |
\*---------------------------------------------------------------------------*/
FoamFile
{
    version     2.0;
    format      ascii;
    class       volScalarField;
    location    "0.03";
    object      nut;
}
// * * * * * * * * * * * * * * * * * * * * * * * * * * * * * * * * * * * * * //

dimensions      [0 2 -1 0 0 0 0];

internalField   nonuniform List<scalar> 
90967
(
0.001345306
0.001316155
0.001306898
0.001304708
0.001304159
0.001304057
0.001316246
0.001262042
0.001245931
0.001241707
0.001240569
0.0012403
0.001306924
0.001245851
0.001225959
0.001220475
0.001218916
0.001218521
0.001304696
0.001241557
0.00122039
0.001214266
0.001212446
0.001211973
0.001304049
0.001240269
0.001218636
0.001212224
0.001210267
0.001209757
0.001303795
0.001239785
0.001217965
0.001211429
0.001209412
0.001208893
0.001303669
0.001239577
0.001217686
0.001211104
0.001209069
0.001208559
0.00130358
0.001239464
0.001217554
0.001210967
0.00120894
0.001208452
0.001303496
0.001239386
0.001217485
0.001210914
0.001208909
0.001208453
0.001303404
0.001239319
0.001217445
0.001210909
0.001208942
0.001208525
0.001303301
0.001239265
0.001217442
0.00121096
0.001209047
0.001208682
0.001303196
0.001239252
0.001217519
0.001211125
0.001209287
0.001208988
0.001303128
0.001239362
0.001217794
0.001211544
0.001209818
0.001209603
0.001303202
0.001239822
0.001218578
0.001212579
0.001211025
0.001210926
0.001303761
0.001241304
0.00122074
0.00121519
0.001213901
0.001213958
0.001306265
0.00124642
0.001227458
0.001222751
0.001221858
0.001222126
0.001317192
0.001265191
0.001250377
0.001247075
0.001246685
0.001247179
0.001354915
0.00132784
0.001319435
0.001317889
0.001317979
0.00131871
0.0006537987
0.0006309346
0.000628734
0.0006290745
0.0006298187
0.0006307693
0.0006319965
0.0001362901
0.0001369971
0.000137706
0.0001384519
0.0001392619
0.0001401642
0.0001412063
0.0006535782
0.000643564
0.0006421429
0.0006420248
0.0006421262
0.0006423235
0.0006426069
0.0006179866
0.0006095846
0.0006052488
0.0006043289
0.0006041748
0.0006041345
0.0006041365
0.0001010132
0.0001010216
0.0001010209
0.0001010207
0.0001010207
0.0001010211
0.000101021
0.0001010197
0.0001010213
0.00010102
0.00010102
0.00010102
0.0001010201
0.0001010202
0.0001010174
0.0001010211
0.00010102
0.0001010199
0.00010102
0.0001010201
0.0001010203
0.000101018
0.0001010211
0.00010102
0.00010102
0.0001010201
0.0001010202
0.0001010204
0.0001010182
0.0001010212
0.0001010201
0.0001010202
0.0001010202
0.0001010204
0.0001010207
0.0001010191
0.0001010214
0.0001010202
0.0001010204
0.0001010205
0.0001010208
0.0001010211
0.0001010207
0.0001010219
0.0001010205
0.0001010207
0.0001010209
0.0001010213
0.0001010218
0.0001010207
0.0001010227
0.000101021
0.0001010213
0.0001010216
0.0001010222
0.0001010229
0.0001010205
0.0001010235
0.0001010218
0.0001010223
0.0001010228
0.0001010236
0.0001010247
0.0001010203
0.0001010248
0.0001010231
0.0001010239
0.0001010245
0.0001010258
0.0001010274
0.0001010203
0.0001010267
0.0001010252
0.0001010262
0.0001010272
0.0001010291
0.0001010318
0.0001010205
0.0001010295
0.0001010282
0.0001010297
0.0001010313
0.0001010341
0.0001010386
0.000101021
0.0001010333
0.0001010324
0.0001010347
0.0001010372
0.0001010415
0.000101048
0.0001010221
0.0001010385
0.0001010382
0.0001010415
0.0001010454
0.000101052
0.0001010623
0.0001010237
0.0001010449
0.0001010456
0.0001010504
0.0001010566
0.000101067
0.0001010819
0.0001010259
0.0001010528
0.0001010547
0.0001010616
0.0001010712
0.0001010875
0.000101112
0.0001010275
0.000101061
0.0001010648
0.000101074
0.0001010886
0.0001011137
0.0001011553
0.0001010255
0.0001010723
0.0001010746
0.0001010868
0.0001011064
0.0001011425
0.0001012072
0.0001010451
0.0001010345
0.0001010562
0.0001010753
0.0001010974
0.0001011397
0.0001012187
0.0001013834
0.000613355
0.0001010195
0.0001010198
0.0001010202
0.0001010209
0.0001010228
0.0001010266
0.0006127427
0.001291783
0.001271286
0.001264048
0.001262339
0.001261974
0.0001010173
0.0001010167
0.000101021
0.0001010209
0.0001010233
0.0001010211
0.0001010208
0.0001010087
0.0001010081
0.000101008
0.000101008
0.000101008
0.000101008
0.000101008
0.0001010082
0.000101008
0.000101008
0.000101008
0.000101008
0.000101008
0.0001010081
0.0001010082
0.000101008
0.000101008
0.0001010081
0.0001010081
0.0001010081
0.0001010083
0.0001010082
0.0001010081
0.0001010081
0.0001010082
0.0001010082
0.0001010084
0.0001010085
0.0001010083
0.0001010083
0.0001010083
0.0001010084
0.0001010085
0.0001010087
0.000101009
0.0001010084
0.0001010085
0.0001010086
0.0001010087
0.0001010089
0.0001010093
0.0001010097
0.0001010087
0.000101009
0.0001010091
0.0001010094
0.0001010096
0.0001010101
0.0001010108
0.0001010091
0.0001010097
0.00010101
0.0001010103
0.0001010108
0.0001010115
0.0001010125
0.0001010097
0.000101011
0.0001010113
0.0001010119
0.0001010126
0.0001010137
0.0001010151
0.0001010107
0.0001010128
0.0001010134
0.0001010142
0.0001010153
0.000101017
0.0001010192
0.0001010122
0.0001010156
0.0001010163
0.0001010176
0.0001010194
0.0001010219
0.0001010253
0.0001010143
0.0001010195
0.0001010206
0.0001010225
0.0001010252
0.0001010292
0.0001010346
0.0001010171
0.0001010247
0.0001010263
0.0001010293
0.0001010335
0.0001010397
0.0001010484
0.0001010205
0.0001010313
0.0001010336
0.0001010382
0.0001010447
0.0001010548
0.0001010694
0.0001010251
0.0001010388
0.0001010423
0.0001010495
0.0001010592
0.0001010751
0.000101099
0.0001010285
0.0001010478
0.0001010525
0.0001010612
0.0001010769
0.0001011016
0.0001011437
0.0001010362
0.0001010597
0.0001010573
0.000101076
0.0001010957
0.0001011342
0.0001012008
0.0001010232
0.0001010391
0.0001010456
0.0001010464
0.0001010648
0.0001010921
0.0001011481
0.0006632151
0.0006916914
0.0006862183
0.0006856489
0.0006859635
0.0006049523
0.0001010202
0.0001010197
0.0001010207
0.0001010207
0.0001010221
0.0001010255
0.0006087454
0.001272443
0.001237674
0.001226863
0.001224164
0.001223546
0.0001010148
0.0001010171
0.0001010207
0.0001010205
0.0001010226
0.0001010207
0.0001010204
0.0001010083
0.0001010081
0.000101008
0.000101008
0.000101008
0.000101008
0.000101008
0.000101008
0.000101008
0.0001010079
0.000101008
0.000101008
0.000101008
0.0001010081
0.0001010081
0.000101008
0.000101008
0.000101008
0.0001010081
0.0001010081
0.0001010083
0.0001010081
0.0001010081
0.0001010081
0.0001010082
0.0001010082
0.0001010083
0.0001010085
0.0001010082
0.0001010083
0.0001010083
0.0001010084
0.0001010085
0.0001010087
0.0001010089
0.0001010083
0.0001010086
0.0001010086
0.0001010087
0.0001010089
0.0001010092
0.0001010097
0.0001010085
0.0001010091
0.0001010091
0.0001010093
0.0001010096
0.0001010101
0.0001010108
0.0001010087
0.0001010099
0.00010101
0.0001010103
0.0001010108
0.0001010115
0.0001010125
0.0001010091
0.0001010111
0.0001010113
0.0001010119
0.0001010126
0.0001010137
0.0001010151
0.0001010097
0.0001010131
0.0001010133
0.0001010142
0.0001010153
0.000101017
0.0001010192
0.0001010106
0.0001010159
0.0001010164
0.0001010177
0.0001010194
0.000101022
0.0001010254
0.0001010117
0.0001010198
0.0001010206
0.0001010227
0.0001010254
0.0001010294
0.0001010348
0.0001010132
0.0001010251
0.0001010264
0.0001010296
0.0001010338
0.0001010402
0.0001010491
0.0001010147
0.0001010318
0.000101034
0.0001010388
0.0001010454
0.0001010556
0.0001010706
0.0001010171
0.0001010393
0.0001010428
0.0001010504
0.0001010602
0.0001010765
0.0001011012
0.0001010176
0.0001010486
0.0001010536
0.0001010623
0.0001010786
0.0001011042
0.0001011481
0.0001010245
0.0001010593
0.000101057
0.0001010775
0.0001010972
0.0001011374
0.0001012068
0.0001010235
0.0001010408
0.0001010434
0.0001010264
0.0001010452
0.0001010633
0.0001011271
0.0006915061
0.0007631951
0.0007546621
0.0007538251
0.0007542454
0.0006006173
0.0001010203
0.0001010204
0.0001010224
0.0001010221
0.0001010235
0.0001010268
0.000607959
0.001265643
0.001227462
0.001214597
0.00121141
0.001210674
0.0001010147
0.0001010169
0.0001010206
0.0001010204
0.0001010224
0.0001010205
0.0001010203
0.0001010086
0.000101008
0.0001010079
0.000101008
0.0001010079
0.000101008
0.000101008
0.000101008
0.0001010079
0.0001010079
0.000101008
0.000101008
0.000101008
0.0001010081
0.000101008
0.0001010079
0.000101008
0.000101008
0.0001010081
0.0001010081
0.0001010083
0.0001010081
0.000101008
0.0001010081
0.0001010082
0.0001010082
0.0001010083
0.0001010085
0.0001010081
0.0001010081
0.0001010082
0.0001010084
0.0001010085
0.0001010087
0.000101009
0.0001010083
0.0001010084
0.0001010086
0.0001010087
0.0001010089
0.0001010092
0.0001010097
0.0001010084
0.0001010089
0.0001010091
0.0001010093
0.0001010096
0.0001010101
0.0001010108
0.0001010087
0.0001010097
0.0001010099
0.0001010103
0.0001010108
0.0001010115
0.0001010125
0.0001010091
0.0001010109
0.0001010113
0.0001010118
0.0001010126
0.0001010137
0.0001010152
0.0001010097
0.0001010128
0.0001010133
0.0001010142
0.0001010154
0.000101017
0.0001010192
0.0001010106
0.0001010156
0.0001010163
0.0001010177
0.0001010195
0.000101022
0.0001010255
0.0001010118
0.0001010195
0.0001010206
0.0001010227
0.0001010255
0.0001010295
0.0001010349
0.0001010133
0.0001010247
0.0001010264
0.0001010295
0.0001010339
0.0001010402
0.0001010492
0.0001010149
0.0001010315
0.0001010339
0.0001010387
0.0001010454
0.0001010555
0.0001010706
0.0001010174
0.0001010389
0.0001010426
0.0001010501
0.00010106
0.0001010766
0.0001011017
0.0001010178
0.0001010486
0.0001010536
0.0001010623
0.000101079
0.0001011053
0.0001011507
0.0001010253
0.000101059
0.0001010567
0.0001010783
0.0001010985
0.00010114
0.0001012118
0.000101024
0.0001010408
0.0001010458
0.0001010253
0.0001010478
0.0001010667
0.000101135
0.0006857602
0.0007542406
0.0007464902
0.0007457654
0.0007462212
0.0005997436
0.0001010202
0.0001010203
0.0001010222
0.0001010219
0.0001010233
0.0001010266
0.0006079233
0.001265648
0.001227475
0.001214624
0.001211449
0.001210705
0.0001010147
0.0001010169
0.0001010206
0.0001010204
0.0001010224
0.0001010205
0.0001010203
0.0001010086
0.000101008
0.0001010079
0.000101008
0.0001010079
0.000101008
0.000101008
0.0001010081
0.0001010079
0.0001010079
0.000101008
0.000101008
0.000101008
0.0001010081
0.000101008
0.0001010079
0.000101008
0.000101008
0.0001010081
0.0001010081
0.0001010083
0.0001010081
0.000101008
0.0001010081
0.0001010082
0.0001010082
0.0001010083
0.0001010085
0.0001010081
0.0001010081
0.0001010082
0.0001010084
0.0001010085
0.0001010087
0.000101009
0.0001010083
0.0001010084
0.0001010086
0.0001010087
0.0001010089
0.0001010092
0.0001010097
0.0001010084
0.0001010089
0.0001010091
0.0001010093
0.0001010096
0.0001010101
0.0001010108
0.0001010087
0.0001010097
0.0001010099
0.0001010103
0.0001010108
0.0001010115
0.0001010125
0.0001010091
0.0001010109
0.0001010113
0.0001010118
0.0001010126
0.0001010137
0.0001010152
0.0001010097
0.0001010128
0.0001010133
0.0001010142
0.0001010154
0.000101017
0.0001010192
0.0001010106
0.0001010156
0.0001010163
0.0001010177
0.0001010195
0.000101022
0.0001010255
0.0001010118
0.0001010195
0.0001010206
0.0001010227
0.0001010255
0.0001010295
0.0001010349
0.0001010133
0.0001010247
0.0001010264
0.0001010295
0.0001010339
0.0001010402
0.0001010491
0.0001010148
0.0001010315
0.0001010339
0.0001010387
0.0001010454
0.0001010555
0.0001010706
0.0001010174
0.0001010389
0.0001010426
0.0001010501
0.00010106
0.0001010766
0.0001011017
0.0001010178
0.0001010486
0.0001010536
0.0001010623
0.000101079
0.0001011053
0.0001011507
0.0001010253
0.000101059
0.0001010567
0.0001010782
0.0001010984
0.00010114
0.0001012118
0.000101024
0.0001010407
0.0001010459
0.0001010253
0.0001010478
0.0001010666
0.000101135
0.0006857602
0.0007542389
0.0007464849
0.000745757
0.0007462078
0.0005996763
0.0001010202
0.0001010203
0.0001010222
0.0001010219
0.0001010233
0.0001010266
0.0006082341
0.001272459
0.001237725
0.001227
0.001224377
0.001223709
0.0001010149
0.0001010171
0.0001010207
0.0001010205
0.0001010228
0.0001010207
0.0001010204
0.0001010083
0.0001010081
0.000101008
0.000101008
0.000101008
0.000101008
0.000101008
0.000101008
0.000101008
0.0001010079
0.000101008
0.000101008
0.000101008
0.0001010081
0.0001010081
0.000101008
0.000101008
0.0001010081
0.0001010081
0.0001010081
0.0001010083
0.0001010082
0.0001010081
0.0001010081
0.0001010082
0.0001010082
0.0001010083
0.0001010085
0.0001010082
0.0001010083
0.0001010083
0.0001010084
0.0001010085
0.0001010087
0.0001010089
0.0001010083
0.0001010086
0.0001010086
0.0001010087
0.0001010089
0.0001010092
0.0001010097
0.0001010085
0.0001010091
0.0001010091
0.0001010093
0.0001010096
0.0001010101
0.0001010108
0.0001010087
0.0001010099
0.00010101
0.0001010103
0.0001010108
0.0001010115
0.0001010125
0.0001010091
0.0001010111
0.0001010113
0.0001010119
0.0001010126
0.0001010137
0.0001010151
0.0001010098
0.0001010131
0.0001010134
0.0001010142
0.0001010153
0.000101017
0.0001010192
0.0001010106
0.0001010159
0.0001010164
0.0001010177
0.0001010194
0.000101022
0.0001010254
0.0001010118
0.0001010198
0.0001010206
0.0001010227
0.0001010254
0.0001010294
0.0001010349
0.0001010132
0.000101025
0.0001010264
0.0001010296
0.0001010338
0.0001010402
0.0001010491
0.0001010147
0.0001010318
0.000101034
0.0001010388
0.0001010454
0.0001010557
0.0001010707
0.0001010171
0.0001010393
0.0001010428
0.0001010504
0.0001010602
0.0001010766
0.0001011012
0.0001010176
0.0001010486
0.0001010535
0.0001010624
0.0001010786
0.0001011043
0.0001011482
0.0001010245
0.0001010593
0.000101057
0.0001010776
0.0001010973
0.0001011373
0.0001012066
0.0001010238
0.0001010406
0.0001010433
0.0001010261
0.000101045
0.0001010636
0.000101128
0.0006915016
0.0007631819
0.0007546381
0.000753794
0.0007541929
0.0005999585
0.0001010203
0.0001010204
0.0001010224
0.0001010221
0.0001010235
0.0001010268
0.000610772
0.001291806
0.001271412
0.001264596
0.001263433
0.001262693
0.0001010168
0.0001010168
0.000101021
0.0001010209
0.0001010251
0.0001010212
0.0001010206
0.0001010088
0.0001010081
0.000101008
0.000101008
0.000101008
0.000101008
0.000101008
0.0001010082
0.000101008
0.000101008
0.000101008
0.000101008
0.000101008
0.0001010081
0.0001010082
0.0001010081
0.000101008
0.0001010081
0.0001010081
0.0001010081
0.0001010083
0.0001010082
0.0001010081
0.0001010082
0.0001010082
0.0001010082
0.0001010084
0.0001010085
0.0001010083
0.0001010083
0.0001010083
0.0001010084
0.0001010085
0.0001010087
0.000101009
0.0001010084
0.0001010085
0.0001010086
0.0001010088
0.0001010089
0.0001010093
0.0001010097
0.0001010087
0.000101009
0.0001010091
0.0001010094
0.0001010096
0.0001010101
0.0001010108
0.0001010091
0.0001010098
0.00010101
0.0001010103
0.0001010108
0.0001010115
0.0001010125
0.0001010098
0.0001010109
0.0001010113
0.0001010119
0.0001010126
0.0001010137
0.0001010151
0.0001010108
0.0001010128
0.0001010134
0.0001010142
0.0001010153
0.000101017
0.0001010192
0.0001010122
0.0001010156
0.0001010164
0.0001010176
0.0001010194
0.0001010219
0.0001010253
0.0001010143
0.0001010195
0.0001010206
0.0001010226
0.0001010252
0.0001010293
0.0001010346
0.0001010171
0.0001010247
0.0001010263
0.0001010293
0.0001010335
0.0001010398
0.0001010484
0.0001010204
0.0001010314
0.0001010336
0.0001010382
0.0001010447
0.0001010548
0.0001010694
0.0001010251
0.0001010388
0.0001010423
0.0001010495
0.0001010592
0.0001010751
0.0001010991
0.0001010286
0.0001010477
0.0001010527
0.0001010612
0.0001010768
0.0001011015
0.0001011436
0.0001010361
0.0001010596
0.0001010573
0.0001010757
0.0001010955
0.0001011345
0.0001012016
0.0001010237
0.0001010384
0.0001010457
0.0001010483
0.0001010648
0.0001010921
0.0001011482
0.0006632002
0.000691651
0.0006861426
0.0006855835
0.0006858387
0.0006026605
0.0001010202
0.0001010197
0.0001010207
0.0001010207
0.0001010221
0.0001010255
0.0006150789
0.0006008021
0.0005821167
0.0005799427
0.0005819489
0.0005810032
0.0005792609
0.0001010109
0.0001010217
0.0001010209
0.0001010207
0.0001010208
0.0001010212
0.0001010209
0.0001010106
0.0001010212
0.00010102
0.00010102
0.00010102
0.0001010201
0.0001010201
0.0001010126
0.0001010211
0.00010102
0.0001010199
0.00010102
0.0001010201
0.0001010203
0.0001010104
0.0001010211
0.00010102
0.00010102
0.0001010201
0.0001010202
0.0001010204
0.0001010105
0.0001010212
0.0001010201
0.0001010202
0.0001010202
0.0001010204
0.0001010207
0.0001010105
0.0001010214
0.0001010203
0.0001010204
0.0001010205
0.0001010208
0.0001010211
0.0001010105
0.0001010219
0.0001010205
0.0001010207
0.0001010209
0.0001010213
0.0001010218
0.0001010106
0.0001010227
0.000101021
0.0001010214
0.0001010216
0.0001010222
0.0001010229
0.0001010108
0.0001010235
0.0001010219
0.0001010223
0.0001010228
0.0001010236
0.0001010247
0.000101013
0.0001010247
0.0001010232
0.0001010239
0.0001010245
0.0001010258
0.0001010274
0.0001010109
0.0001010267
0.0001010251
0.0001010262
0.0001010272
0.0001010291
0.0001010318
0.0001010114
0.0001010295
0.0001010281
0.0001010297
0.0001010313
0.0001010341
0.0001010386
0.0001010111
0.0001010334
0.0001010324
0.0001010347
0.0001010372
0.0001010415
0.0001010479
0.0001010113
0.0001010385
0.0001010382
0.0001010415
0.0001010454
0.0001010521
0.0001010621
0.000101013
0.0001010448
0.0001010457
0.0001010504
0.0001010567
0.0001010671
0.0001010819
0.0001010145
0.0001010528
0.0001010546
0.0001010617
0.0001010712
0.0001010877
0.0001011122
0.000101013
0.0001010611
0.0001010647
0.0001010741
0.0001010887
0.0001011138
0.0001011551
0.0001010172
0.0001010722
0.0001010744
0.0001010867
0.0001011063
0.0001011423
0.0001012079
0.0001010461
0.0001010326
0.0001010473
0.0001010488
0.0001010543
0.0001010941
0.0001011656
0.0001013024
0.0006078665
0.0001010195
0.0001010198
0.0001010202
0.0001010209
0.0001010228
0.0001010265
0.0002746708
0.0002680415
0.0002676668
0.0002677083
0.0002769477
0.0002771604
0.0002676859
0.0001011259
0.001344959
0.001316084
0.001306864
0.001304501
0.001303228
0.001303717
0.00010172
0.001315671
0.001261944
0.001245886
0.00124163
0.001240446
0.001240207
0.0001011273
0.001306772
0.001245804
0.001225933
0.001220435
0.001218856
0.001218474
0.0001011218
0.001304679
0.001241543
0.001220381
0.001214255
0.001212432
0.001211961
0.0001011198
0.001304046
0.001240264
0.001218631
0.001212221
0.001210264
0.001209754
0.000101117
0.001303793
0.001239781
0.00121796
0.001211426
0.001209411
0.001208894
0.0001011132
0.001303663
0.001239564
0.001217677
0.001211098
0.001209067
0.001208561
0.0001011096
0.001303541
0.001239427
0.001217533
0.001210959
0.001208937
0.001208451
0.0001011061
0.00130315
0.001239286
0.001217436
0.001210902
0.001208907
0.001208452
0.000101134
0.001302357
0.001239153
0.001217374
0.001210891
0.001208937
0.001208524
0.0001011013
0.00130251
0.001239078
0.001217375
0.001210942
0.001209043
0.00120868
0.0001011031
0.001302334
0.001239071
0.001217465
0.001211109
0.001209285
0.001208989
0.0001010675
0.001302559
0.001239204
0.001217746
0.001211531
0.00120982
0.001209609
0.0001010583
0.001302775
0.001239657
0.001218521
0.001212567
0.001211029
0.001210934
0.0001010783
0.001302825
0.001241062
0.001220632
0.001215155
0.001213878
0.00121395
0.0001010454
0.001304655
0.001246098
0.001227261
0.001222566
0.001221645
0.001221992
0.0001010541
0.001316048
0.001264867
0.001249966
0.001246145
0.001245428
0.00124639
0.0001010719
0.001354334
0.001327697
0.001318465
0.001313387
0.001311804
0.001315134
0.0001010222
0.0001033213
0.0001049687
0.0001068861
0.0001089458
0.0001108657
0.000113847
0.0001180513
0.0002649816
0.0001010357
0.0001010363
0.0001010543
0.0001010442
0.0001011103
0.0001011056
0.0001010768
0.0006597491
0.0002644256
0.0001010862
0.0001011095
0.000655357
0.000637494
0.0002746704
0.0002684711
0.0001019269
0.000101231
0.0006333001
0.0006313187
0.0002680401
0.0002680089
0.0001018565
0.0001013175
0.0006308245
0.000630657
0.000267663
0.0002678883
0.0001019435
0.0001013292
0.0006305554
0.0006305744
0.0002675783
0.0002678763
0.0001019303
0.0001013157
0.0006305204
0.0006305527
0.0002675679
0.000267866
0.0001019475
0.0001013139
0.0006305129
0.0006305559
0.0002675565
0.0002678547
0.000101962
0.0001013116
0.0006305339
0.0002675451
0.0001019899
0.0006555209
0.0006374272
0.0001011267
0.0001128559
0.0001011325
0.00011291
0.0006333313
0.0006312372
0.0001011191
0.0001129337
0.0001011231
0.0001129164
0.0006307955
0.0006305775
0.0001011235
0.000112904
0.0001011228
0.0001128995
0.0006305038
0.0006304794
0.0001011224
0.0001128665
0.0001011216
0.0001128646
0.0006304455
0.0006304391
0.0001011204
0.0001128054
0.0001011198
0.0001128054
0.0006304031
0.0006304021
0.0001011176
0.0001127115
0.0001011175
0.0001127112
0.000630353
0.0006303566
0.0001011138
0.0001125759
0.0001011141
0.0001125724
0.0006302869
0.0006302961
0.0001011102
0.0001123852
0.0001011094
0.0001123762
0.0006301991
0.000630213
0.000101107
0.0001121237
0.0001011034
0.0001121062
0.0006300848
0.0006301039
0.0001011008
0.0001117658
0.000101096
0.000111747
0.0006299363
0.0006299607
0.000101093
0.000111299
0.0001010874
0.0001112804
0.0006297504
0.0006297811
0.0001010846
0.0001107011
0.0001010779
0.0001106845
0.0006295225
0.0006295584
0.0001010762
0.0001099584
0.0001010685
0.0001099413
0.0006292485
0.0006292932
0.0001010688
0.0001090597
0.0001010596
0.0001090399
0.0006289313
0.0006290025
0.0001010637
0.0001079863
0.000101051
0.0001079606
0.0006286234
0.0006289179
0.0001010615
0.0001067511
0.0001010434
0.0001067199
0.0006288541
0.000631135
0.0001010651
0.0001053116
0.0001010348
0.0001052879
0.0006349155
0.0006538787
0.0001010533
0.0001037803
0.0001010216
0.0001037402
0.0006571744
0.0003132134
0.0001010331
0.0001011432
0.0001010256
0.0001360459
0.0002992165
0.0002140508
0.0001010549
0.0001366738
0.0002968642
0.0002952029
0.0001011023
0.0001013336
0.000137363
0.0002950616
0.0002950594
0.000101102
0.0001014553
0.0001380926
0.000295019
0.0002951589
0.0001011098
0.0001015583
0.0001388761
0.0002951421
0.0002953262
0.0001011224
0.000101678
0.0001397504
0.0002953192
0.0002955324
0.000101135
0.0001018059
0.000140767
0.000295531
0.0002957965
0.0001011459
0.0001019814
0.0002958063
0.0001011569
0.0006691136
0.0002651674
0.0001010428
0.0002753898
0.0001010194
0.0001010738
0.0002697612
0.0001010484
0.0001010923
0.0002191807
0.0001011049
0.000212196
0.0001011028
0.0002696134
0.0001010164
0.0001011062
0.0002692888
0.0001010151
0.0001011114
0.0002120588
0.0001011028
0.0002117818
0.0001011048
0.0002692488
0.0001010159
0.0001011094
0.0002691507
0.0001010152
0.0001011104
0.0002117431
0.000101105
0.0002116659
0.0001011056
0.0002691854
0.0001010158
0.0001011102
0.0002691822
0.0001010152
0.0001011101
0.0002116595
0.0001011054
0.0002116529
0.0001011056
0.0002691768
0.0001010158
0.0001011103
0.0002691806
0.0001010152
0.0001011101
0.0002116528
0.0001011056
0.0002116594
0.0001011055
0.0002692375
0.0001010158
0.0001011102
0.0002693219
0.0001010153
0.0001011095
0.0002116663
0.0001011056
0.0002117431
0.000101105
0.0002693486
0.0001010157
0.000101111
0.0002695113
0.0001010158
0.0001011065
0.0002117824
0.0001011048
0.0002120596
0.0001011028
0.0002696759
0.0001010493
0.0001010925
0.0002754153
0.0001010192
0.0001010735
0.0002122018
0.0001011027
0.0002194431
0.0001011049
0.0002644159
0.0001010878
0.0001011109
0.0006597581
0.000268472
0.0001019113
0.0001012308
0.0006553239
0.0006374921
0.0002680111
0.000101859
0.0001013172
0.000633301
0.0006313218
0.0002679334
0.0001019401
0.000101329
0.0006308278
0.0006306648
0.000271616
0.0001019131
0.0001013127
0.0006305771
0.0006306355
0.0002879674
0.0001019138
0.0001013434
0.000631002
0.0006310989
0.0002682756
0.0001020087
0.0001013112
0.0006306169
0.000630584
0.0001019954
0.0006305421
0.0001128761
0.000101164
0.0001130696
0.0006551973
0.0006348329
0.0001127753
0.0001011371
0.0001130931
0.0006285313
0.0006286622
0.000112936
0.0001011226
0.0001128948
0.0006304801
0.0006305629
0.0001128651
0.0001011216
0.0001128624
0.0006305077
0.0006304836
0.0001128042
0.0001011198
0.0001128042
0.00063045
0.0006304431
0.0001127113
0.0001011175
0.0001127109
0.0006304077
0.0006304078
0.0001125758
0.0001011141
0.000112572
0.0006303568
0.0006303608
0.0001123848
0.0001011094
0.0001123741
0.0006302878
0.000630304
0.0001121264
0.0001010897
0.0001121619
0.0006302232
0.0006303238
0.0001119137
0.0001010864
0.0001118822
0.000630607
0.000630311
0.0001113794
0.0001010834
0.0001113946
0.0006279264
0.0006268704
0.0001100289
0.0001010631
0.0001100157
0.0006275659
0.0006268515
0.0001090855
0.0001010557
0.0001090705
0.0006282461
0.0006283081
0.0001068362
0.0001010651
0.000106827
0.0006293104
0.0006296078
0.000105351
0.0001010306
0.0001053509
0.0006284233
0.0006267239
0.0001037804
0.0001010605
0.0001036844
0.0006292079
0.0006485546
0.0001011449
0.0001010205
0.0006546839
0.0003132298
0.0002143635
0.000101055
0.000136138
0.0002997111
0.0001011021
0.0001013356
0.0001364979
0.0001309745
0.0003004136
0.00029585
0.0001011021
0.0001014555
0.0001349217
0.0001331046
0.0002951787
0.0002950634
0.0001011098
0.0001015645
0.0001356938
0.0001355283
0.0002950251
0.0002958188
0.0001011224
0.0001016743
0.0001301742
0.0002988887
0.0002991011
0.0001011377
0.0001017951
0.0002959791
0.0002955361
0.0001011449
0.0001019972
0.000140545
0.0002955193
0.0002958515
0.0001011675
0.0001416134
0.000297363
0.0001010434
0.0006688354
0.0001015816
0.0003297135
0.0001211252
0.000315142
0.0001212733
0.0003135146
0.000120945
0.0003120588
0.0001210273
0.0003111978
0.0001209446
0.0003118274
0.0001210175
0.0003110955
0.0001208797
0.0003118141
0.0001209502
0.0003110781
0.0001207705
0.0003117949
0.0001208372
0.0003110574
0.0001206006
0.000311764
0.0001206641
0.0003110266
0.0001203523
0.0003117193
0.0001204149
0.0003109818
0.0001200073
0.0003116568
0.0001200674
0.0003109202
0.0001195367
0.0003115712
0.0001195939
0.000310842
0.0001189166
0.0003114572
0.0001189725
0.0003107297
0.0001181153
0.0003113092
0.0001181711
0.0003105833
0.0001171035
0.0003111212
0.0001171618
0.000310397
0.0001158491
0.000310886
0.0001159075
0.0003101645
0.0001143307
0.0003105944
0.0001143968
0.0003098779
0.0001125397
0.0003102407
0.0001126174
0.0003095282
0.000110478
0.0003098193
0.0001105743
0.0003091091
0.0001081244
0.0003093245
0.0001082249
0.0003086629
0.0001056746
0.0003092118
0.0001057552
0.0003097733
0.0001035368
0.0003130306
0.0001036084
0.0003205672
0.0006348304
0.0003122823
0.0003118239
0.0001033258
0.000103392
0.000101036
0.0001010557
0.0006285901
0.0003120496
0.0003123188
0.0001049809
0.0001050651
0.000101041
0.0001010751
0.0006284151
0.0003127241
0.0003130796
0.0001068508
0.0001069735
0.0001010521
0.0001011067
0.000628981
0.000313544
0.0003139273
0.0001089282
0.0001090862
0.0001010776
0.0001011639
0.0006297648
0.0003144712
0.0003149245
0.000111365
0.0001115794
0.0001011273
0.0001012741
0.0006307502
0.0003155825
0.000316159
0.000114306
0.0001146313
0.0001012237
0.0001015011
0.0003169866
0.0001180291
0.0001014172
9.136107e-05
0.0001375738
0.0001010211
0.0001329839
7.159999e-05
0.0001363971
0.0001359842
0.0001010283
0.0001010572
7.157468e-05
0.0001360965
7.184466e-05
0.0001370793
0.0001362573
0.0001010655
0.0001010911
7.175784e-05
0.0001363201
7.20843e-05
0.0001377955
0.0001364936
0.0001011386
0.0001011665
7.201622e-05
0.0001365354
7.234036e-05
0.000138553
0.0001367391
0.000101271
0.0001013033
7.228319e-05
0.0001367655
7.262432e-05
0.0001393799
0.0001370063
0.000101496
0.000101536
7.257175e-05
0.0001370177
7.296378e-05
0.0001403136
0.0001373135
0.0001018763
0.000101919
7.291177e-05
0.0001373126
0.0001376947
0.0001025262
7.33391e-05
0.0001012092
0.0003215399
0.0001011627
0.0003129057
0.0001023545
0.0001023257
0.0001010748
0.0001010189
0.0001010464
0.0001010792
0.0001010226
6.331507e-05
0.0001010376
6.342492e-05
0.0001010242
0.0001023638
0.000102372
0.0001010354
0.0001010257
0.0001010238
0.0001010399
0.0001010265
6.330425e-05
0.000101022
6.330393e-05
0.0001010214
0.0001023695
0.0001023739
0.0001010406
0.0001010251
0.0001010238
0.0001010418
0.0001010248
6.331049e-05
0.0001010218
6.330868e-05
0.00010102
0.0001023767
0.00010238
0.0001010435
0.0001010244
0.000101024
0.0001010437
0.0001010245
6.330847e-05
0.0001010198
6.330761e-05
0.0001010197
0.0001023741
0.0001023803
0.0001010438
0.0001010245
0.000101024
0.0001010434
0.0001010244
6.330851e-05
0.0001010197
6.330783e-05
0.0001010198
0.0001023782
0.0001023776
0.0001010419
0.0001010248
0.0001010235
0.0001010405
0.0001010251
6.331157e-05
0.00010102
6.33113e-05
0.0001010203
0.000102374
0.0001023796
0.0001010399
0.0001010265
0.0001010232
0.0001010353
0.0001010257
6.330374e-05
0.0001010205
6.330474e-05
0.0001010226
0.0001023712
0.0001023763
0.0001010781
0.0001010225
0.0001010429
0.0001010741
0.0001010189
6.331019e-05
0.0001010294
6.330764e-05
0.0001010317
0.0001018464
0.0001022555
0.0001108579
0.0001010706
0.0001108318
0.0006253384
0.0006255894
0.0001080559
0.0001011163
0.0001080641
0.0006263326
0.0006287088
0.0001033836
0.0001010364
0.0001010471
0.0006536564
0.0006357797
0.0003126772
0.0003715582
0.0001050718
0.0001010445
0.0001010689
0.0006314842
0.0006291047
0.0003466583
0.0003644339
0.0001070535
0.0001010571
0.0001011211
0.0006287699
0.0006270502
0.000347511
0.0003434888
0.0001086548
0.0001010775
0.0001014065
0.0006233241
0.0006178631
0.0003430353
0.0002998186
0.0001109899
0.0001015977
0.0001016293
0.0006169739
0.0006173172
0.0003009612
0.0003021514
0.0001145951
0.0001019605
0.0001017263
0.000621288
0.0006272163
0.0003045633
0.0003475105
0.0001014429
0.0006312917
0.0003168498
6.598806e-05
0.0001010222
6.354154e-05
0.0001010329
0.0001213465
0.0003167769
0.0001216956
0.0003256864
0.0001018468
0.0001022552
0.0001211915
0.0003122958
0.0001211655
0.000312749
0.0001209924
0.0003118557
0.0001210613
0.0003111529
0.0001209382
0.0003118305
0.0001210131
0.0003110911
0.0001208641
0.0003118141
0.0001209364
0.000311077
0.0001207507
0.0003117935
0.0001208196
0.0003110571
0.0001205758
0.0003117626
0.0001206437
0.0003110276
0.0001203213
0.0003117172
0.0001203867
0.0003109838
0.0001199679
0.0003116536
0.0001200296
0.0003109196
0.0001194886
0.0003115663
0.0001195478
0.0003108318
0.000118854
0.0003114495
0.0001189118
0.0003107147
0.0001180359
0.0003112967
0.0001180903
0.0003105619
0.0001170051
0.0003111019
0.0001170572
0.000310367
0.0001157331