/*--------------------------------*- C++ -*----------------------------------*\
  =========                 |
  \\      /  F ield         | OpenFOAM: The Open Source CFD Toolbox
   \\    /   O peration     | Website:  https://openfoam.org
    \\  /    A nd           | Version:  7
     \\/     M anipulation  |
\*---------------------------------------------------------------------------*/
FoamFile
{
    version     2.0;
    format      ascii;
    class       volScalarField;
    location    "0.03";
    object      p;
}
// * * * * * * * * * * * * * * * * * * * * * * * * * * * * * * * * * * * * * //

dimensions      [0 2 -2 0 0 0 0];

internalField   nonuniform List<scalar> 
90967
(
2.650807
4.344916
6.188866
7.933281
9.699622
11.41325
2.651473
4.407814
6.217446
8.002267
9.76947
11.50173
2.695196
4.425737
6.288316
8.062399
9.864334
11.61336
2.711478
4.475449
6.345472
8.154547
9.980106
11.75957
2.751
4.525675
6.431856
8.26192
10.12561
11.9405
2.781747
4.584484
6.51763
8.382692
10.2866
12.14717
2.81545
4.642798
6.608864
8.509868
10.46043
12.37579
2.843584
4.698279
6.695591
8.636931
10.63808
12.61669
2.862547
4.741769
6.767382
8.750121
10.80702
12.85686
2.869065
4.764094
6.812462
8.834492
10.94983
13.08076
2.856171
4.751804
6.811494
8.86599
11.03833
13.25829
2.816844
4.690857
6.744937
8.819447
11.04332
13.35713
2.733023
4.556757
6.573329
8.644413
10.90275
13.30709
2.598154
4.335763
6.277864
8.311348
10.57786
13.05705
2.377204
3.976995
5.779458
7.711524
9.930068
12.44914
2.081552
3.484696
5.088041
6.84097
8.925195
11.38228
1.641805
2.768784
4.048115
5.507162
7.309105
9.576877
1.116902
1.885097
2.780258
3.811185
5.134998
6.879841
0.5769072
1.058502
1.572384
2.182578
2.976035
4.077055
5.713182
0.03665664
0.06447601
0.09811836
0.1432234
0.2079628
0.3066848
0.4683784
51.96199
51.98039
52.01539
52.07807
52.15107
52.24403
52.35514
2.324239
4.149795
5.925091
7.722619
9.472778
11.19758
12.88142
0.529759
2.650503
4.334577
6.188056
7.924627
9.699555
11.41377
0.5680986
2.576974
4.384193
6.196172
7.989547
9.75888
11.49405
0.5866024
2.633205
4.40143
6.276596
8.053157
9.860548
11.61073
0.5929346
2.631954
4.448732
6.326078
8.144534
9.974201
11.75618
0.595993
2.67734
4.498721
6.414887
8.251351
10.12055
11.93728
0.5990306
2.70626
4.556696
6.499931
8.372113
10.28116
12.14415
0.6017291
2.74415
4.612486
6.591522
8.498777
10.4552
12.37253
0.6036219
2.778488
4.665751
6.678181
8.625165
10.63298
12.6138
0.6043329
2.803316
4.708071
6.750174
8.737591
10.80109
12.85431
0.6022657
2.814789
4.730672
6.795486
8.821339
10.94271
13.07714
0.5955014
2.805643
4.719657
6.795193
8.852455
11.03034
13.25318
0.582152
2.768273
4.66063
6.728734
8.804406
11.03319
13.34891
0.5596757
2.687131
4.528765
6.559418
8.628881
10.89137
13.29685
0.5261344
2.554691
4.306783
6.261949
8.289803
10.55676
13.03287
0.4769567
2.337423
3.947041
5.757917
7.683746
9.897996
12.41074
0.4122801
2.049119
3.441337
5.041909
6.777804
8.844044
11.27618
0.325105
1.607581
2.703485
3.950867
5.374445
7.138437
9.356634
0.2281198
1.094155
1.753214
2.567207
3.499952
4.738576
6.388251
0.1355529
0.4836322
0.8149836
1.17916
1.619364
2.1982
3.000302
4.209758
51.96484
51.97153
51.99341
52.04283
52.10054
52.18003
52.28815
2.318738
4.43836
6.088067
7.938803
9.653838
11.39006
0.5301666
2.733074
4.332372
6.19806
7.942155
9.705672
11.4232
1.010219
2.566095
4.446029
6.199377
8.010245
9.761728
11.50382
0.9511308
2.635005
4.429585
6.279253
8.05961
9.86214
11.61307
0.977461
2.620409
4.494254
6.328082
8.15768
9.97644
11.76095
0.9782972
2.661144
4.534053
6.413819
8.258688
10.12056
11.93935
0.9885584
2.685308
4.595078
6.496993
8.380467
10.28108
12.14658
0.9966035
2.719933
4.650474
6.586542
8.506105
10.45418
12.3744
1.004123
2.748788
4.70479
6.671955
8.632313
10.63165
12.61561
1.008186
2.771874
4.746389
6.743155
8.744282
10.79937
12.85599
1.00725
2.782634
4.767817
6.788031
8.827504
10.94037
13.07838
0.9983564
2.773494
4.755061
6.787205
8.858035
11.02737
13.25376
0.9788671
2.73648
4.693729
6.719584
8.808173
11.02722
13.34569
0.9438744
2.656082
4.559325
6.548558
8.630711
10.88308
13.29112
0.8909411
2.52615
4.332776
6.245986
8.280629
10.53315
13.00628
0.811015
2.310424
3.970261
5.737293
7.667797
9.868435
12.38311
0.7048476
2.031337
3.446013
4.993747
6.701174
8.725648
11.11499
0.5629456
1.579074
2.708523
3.874165
5.273549
7.005918
9.237557
0.3835978
1.108202
1.674144
2.390321
3.183683
4.260494
5.658061
0.1665418
0.4265257
0.6290765
0.765193
1.082105
1.508824
2.210076
52.01037
52.06366
52.11605
52.19832
52.32058
51.95919
51.96847
51.99176
52.04457
52.1063
52.18564
52.29709
2.317951
4.441814
6.12965
7.939689
9.664243
11.39206
0.5283799
2.74165
4.301393
6.198116
7.936331
9.702881
11.42312
0.8821334
2.544459
4.407446
6.184533
7.997046
9.752202
11.49855
0.8158826
2.62581
4.382642
6.267773
8.047947
9.854002
11.60841
0.8227774
2.586148
4.442397
6.308067
8.143768
9.96573
11.75609
0.8271061
2.636203
4.479182
6.395686
8.242189
10.10949
11.93348
0.8367182
2.657054
4.539523
6.477625
8.364136
10.26972
12.14094
0.8467349
2.69396
4.593986
6.567257
8.488701
10.44234
12.36815
0.8562207
2.722388
4.648822
6.652391
8.614691
10.61957
12.60913
0.8635162
2.745395
4.691002
6.723244
8.726094
10.78675
12.84894
0.8670211
2.755285
4.713611
6.767647
8.808731
10.92698
13.07025
0.8641613
2.745421
4.702422
6.766527
8.838772
11.01314
13.24447
0.8526372
2.707014
4.642647
6.697886
8.787153
11.01046
13.3331
0.8279587
2.626073
4.511277
6.52676
8.607964
10.86327
13.27469
0.7876575
2.495241
4.285556
6.218886
8.248658
10.50005
12.97265
0.7229097
2.279457
3.92624
5.703011
7.620923
9.811313
12.31971
0.6353794
2.003345
3.396117
4.932866
6.607638
8.605096
10.97105
0.5135104
1.546919
2.650645
3.769575
5.109421
6.777429
8.941697
0.3658011
1.093788
1.595588
2.24319
2.939768
3.928773
5.216967
0.1826819
0.4061047
0.5695763
0.6188545
0.8417604
1.149674
1.683199
52.00285
52.06394
52.10721
52.19007
52.29773
51.95653
51.96867
51.98913
52.04043
52.09979
52.1781
52.28702
2.322732
4.467007
6.114678
7.951918
9.660964
11.39811
0.533122
2.75242
4.301975
6.199909
7.940625
9.703802
11.42553
0.9057722
2.544087
4.426767
6.185548
8.007668
9.754801
11.50348
0.8267166
2.608749
4.386761
6.265368
8.05004
9.854593
11.60984
0.8450046
2.573552
4.453551
6.30322
8.147919
9.965699
11.75792
0.8427861
2.616955
4.486003
6.388811
8.243533
10.10776
11.93413
0.8536415
2.637425
4.547297
6.469481
8.365512
10.26769
12.14155
0.8620311
2.672754
4.600873
6.55813
8.489501
10.43986
12.36849
0.8712847
2.700504
4.655521
6.642807
8.615345
10.61696
12.60943
0.8778646
2.723314
4.697099
6.713289
8.726466
10.78393
12.84915
0.8807796
2.733841
4.719285
6.757647
8.808808
10.92381
13.07017
0.8771316
2.724201
4.707518
6.756113
8.838203
11.0094
13.2438
0.8647965
2.686853
4.647153
6.687005
8.78496
11.00469
13.33006
0.8391037
2.607086
4.515254
6.515268
8.60388
10.85503
13.26897
0.7980231
2.478354
4.288339
6.204912
8.237735
10.48209
12.95532
0.7327362
2.26535
3.928898
5.685837
7.600898
9.782101
12.29087
0.6444197
1.992978
3.392456
4.90459
6.56223
8.539238
10.88905
0.522118
1.539995
2.650574
3.734766
5.059241
6.710255
8.874817
0.3715177
1.09737
1.574211
2.188354
2.842008
3.781896
4.998535
0.1880331
0.4068252
0.5743645
0.5947106
0.8101505
1.103803
1.628528
52.00516
52.06751
52.1107
52.19537
52.30732
51.95546
51.96802
51.98828
52.04147
52.101
52.17983
52.28988
2.321366
4.466892
6.114441
7.951855
9.660216
11.39796
0.5316038
2.752005
4.302023
6.199481
7.940707
9.70347
11.42556
0.9056621
2.543842
4.426718
6.185146
8.007592
9.754457
11.50344
0.8267512
2.608452
4.386691
6.265081
8.050041
9.854452
11.60988
0.8449589
2.573183
4.453453
6.302871
8.147812
9.96553
11.75791
0.8427427
2.6167
4.485901
6.388534
8.243454
10.10763
11.93411
0.8536363
2.637048
4.547175
6.469133
8.365398
10.26752
12.14152
0.8619919
2.672396
4.600717
6.557717
8.489357
10.43964
12.36845
0.8712766
2.699913
4.655377
6.642276
8.615201
10.61669
12.60939
0.8776617
2.72299
4.696908
6.712775
8.726303
10.7836
12.84908
0.8806069
2.733089
4.719172
6.756952
8.808645
10.92341
13.07008
0.8763903
2.724029
4.707202
6.755523
8.837973
11.00901
13.24369
0.8640098
2.686362
4.646863
6.68632
8.784742
11.00434
13.33
0.8383748
2.60697
4.514968
6.51468
8.603695
10.85476
13.26899
0.797595
2.478185
4.288194
6.204387
8.237655
10.48198
12.95542
0.7324193
2.265344
3.928873
5.685439
7.60095
9.781975
12.29096
0.6445566
1.992711
3.392376
4.903454
6.561489
8.538314
10.88862
0.5220057
1.540085
2.650916
3.735023
5.060515
6.711284
8.875813
0.3713555
1.096706
1.57298
2.184466
2.83774
3.777196
4.995683
0.18894
0.4068133
0.5748991
0.5952296
0.8127796
1.106871
1.631109
52.0055
52.06741
52.11053
52.19433
52.30673
51.95527
51.96804
51.98834
52.04121
52.10057
52.17892
52.28922
2.316824
4.440756
6.127865
7.938024
9.662892
11.39345
0.5282055
2.74084
4.301147
6.197088
7.936489
9.701944
11.42389
0.8821316
2.543569
4.407256
6.184152
7.996719
9.751567
11.49901
0.8158144
2.625635
4.382735
6.267491
8.048072
9.85373
11.6086
0.8228411
2.58617
4.442442
6.308004
8.143695
9.965556
11.75619
0.8271293
2.636253
4.479228
6.395721
8.242224
10.10948
11.93354
0.8367907
2.657452
4.539647
6.477899
8.364221
10.26982
12.141
0.8468024
2.69446
4.594052
6.567642
8.488795
10.44253
12.36823
0.856383
2.723454
4.649024
6.653119
8.6149
10.61994
12.60927
0.8637305
2.74642
4.691198
6.723976
8.726277
10.7872
12.84911
0.86753
2.757543
4.713994
6.769005
8.809084
10.92769
13.07055
0.8647307
2.74672
4.702611
6.76757
8.83906
11.01378
13.2448
0.8534242
2.708704
4.643023
6.699215
8.787559
11.01117
13.33348
0.8285108
2.627268
4.511488
6.527923
8.608257
10.86389
13.27502
0.7880731
2.496584
4.285849
6.220094
8.248891
10.50049
12.9729
0.7233368
2.280981
3.926503
5.704148
7.620821
9.811421
12.31962
0.6357229
2.005812
3.396524
4.934871
6.607948
8.605412
10.9707
0.5135405
1.547567
2.649957
3.768966
5.106721
6.773909
8.93894
0.3658939
1.095021
1.596151
2.246861
2.941516
3.929722
5.215761
0.1854883
0.4074086
0.5686642
0.6177559
0.8363893
1.141835
1.676218
52.00319
52.06398
52.10834
52.19136
52.29804
51.95595
51.96903
51.98954
52.0408
52.10076
52.17858
52.2874
2.307489
4.43787
6.086245
7.938516
9.647278
11.39207
0.5240513
2.73041
4.332826
6.196067
7.94298
9.704529
11.42475
1.00979
2.566134
4.446256
6.197773
8.009832
9.759934
11.50418
0.9513452
2.633044
4.430019
6.278066
8.060041
9.861634
11.61348
0.9775762
2.619685
4.494246
6.32716
8.157475
9.97584
11.76098
0.9782948
2.660392
4.533911
6.413184
8.258619
10.12031
11.93938
0.988539
2.684774
4.594904
6.496485
8.380319
10.28085
12.14658
0.9963933
2.719431
4.650087
6.586059
8.505872
10.45393
12.37437
1.003995
2.748205
4.704469
6.671518
8.632127
10.63145
12.61564
1.007489
2.771425
4.745766
6.742719
8.743952
10.79911
12.856
1.006804
2.782662
4.767512
6.787654
8.827336
10.9402
13.07849
0.9955681
2.773218
4.75397
6.786755
8.857656
11.02716
13.25387
0.9756496
2.735587
4.692899
6.719071
8.807963
11.02713
13.34592
0.9411923
2.656116
4.558338
6.548339
8.630509
10.88309
13.29141
0.8894428
2.526689
4.332277
6.245939
8.280434
10.53326
13.00662
0.8102612
2.311985
3.970311
5.737904
7.668081
9.868479
12.3833
0.7064028
2.033247
3.446046
4.992746
6.698726
8.723555
11.11326
0.5625155
1.580074
2.709367
3.875857
5.275128
7.004658
9.235556
0.3833803
1.107996
1.672039
2.384855
3.173538
4.252061
5.650146
0.1784955
0.4200364
0.631773
0.7715648
1.09499
1.520591
2.218908
52.01089
52.06396
52.11659
52.19378
52.32139
51.95864
51.96884
51.99184
52.04347
52.10419
52.18269
52.29715
2.285486
4.107156
5.894896
7.647306
9.412342
11.13844
12.8221
0.4509538
2.648062
4.334131
6.18433
7.92583
9.694286
11.41879
0.4375755
2.570383
4.383564
6.193789
7.988326
9.756265
11.49541
0.4208579
2.631504
4.40172
6.275393
8.053854
9.859582
11.61146
0.4194487
2.630705
4.448635
6.325317
8.144252
9.973472
11.75648
0.4215829
2.676766
4.498591
6.414517
8.251428
10.12036
11.93739
0.4266953
2.706408
4.556588
6.499933
8.372104
10.28115
12.14425
0.4301937
2.744624
4.612148
6.591663
8.498686
10.45537
12.37261
0.4337584
2.779955
4.665416
6.678908
8.625146
10.63341
12.61395
0.4363547
2.806747
4.70795
6.750883
8.737405
10.80155
12.85444
0.4371276
2.822948
4.730297
6.797639
8.821159
10.94365
13.0774
0.4351824
2.809848
4.718504
6.79648
8.85209
11.0311
13.25344
0.4271833
2.77319
4.659382
6.730702
8.804217
11.03415
13.34935
0.4150065
2.690876
4.527597
6.561059
8.628699
10.89226
13.29735
0.394581
2.558839
4.306188
6.263826
8.289528
10.55736
13.03314
0.3631213
2.345612
3.947211
5.760419
7.683678
9.898268
12.41075
0.3211199
2.061738
3.441252
5.044065
6.775055
8.840815
11.27257
0.2608884
1.611981
2.70278
3.950942
5.369942
7.129619
9.349595
0.2001796
1.096521
1.750665
2.563315
3.479899
4.700911
6.354096
0.1385807
0.4669778
0.7538412
1.042031
1.388844
1.851119
2.546483
3.649295
51.96515
51.97262
51.995
52.04584
52.10398
52.18088
52.28661
2.008552
3.782694
5.564009
7.323242
8.975397
10.80533
12.50524
0.2039187
2.64238
4.348305
6.185086
7.939405
9.704482
11.41762
0.5590489
2.653126
4.411712
6.214903
7.999728
9.76547
11.50296
0.2334885
2.690869
4.428168
6.286184
8.063935
9.864033
11.61428
0.2291405
2.710738
4.476528
6.344365
8.15429
9.979216
11.75978
0.2307553
2.749681
4.526336
6.431153
8.262192
10.12547
11.94068
0.2318939
2.781544
4.584791
6.517451
8.382714
10.28649
12.14725
0.2328329
2.814876
4.642762
6.608671
8.509736
10.46041
12.37583
0.2331623
2.843429
4.698112
6.69588
8.636801
10.63825
12.6168
0.2332444
2.860314
4.741875
6.766977
8.74976
10.80708
12.85692
0.2352684
2.869553
4.763882
6.813265
8.834099
10.95026
13.08095
0.2320554
2.853761
4.751784
6.81111
8.865513
11.0385
13.25847
0.219609
2.813096
4.691906
6.744773
8.819328
11.04372
13.35753
0.2190722
2.730829
4.556192
6.573338
8.64411
10.90306
13.30745
0.2051883
2.59913
4.334524
6.278516
8.311144
10.57863
13.05773
0.190629
2.379204
3.975684
5.780449
7.711209
9.929257
12.44846
0.166003
2.090652
3.482355
5.089738
6.838388
8.925865
11.38233
0.1386335
1.642839
2.766942
4.048305
5.501041
7.287412
9.559138
0.213643
1.122289
1.884728
2.77271
3.780996
5.114766
6.865616
0.06433841
0.5083861
0.8819839
1.276898
1.711294
2.216925
3.005066
4.409621
51.96506
51.96579
51.98195
52.01313
52.0883
52.13698
52.27526
52.39548
1.215259
1.430126
0.1971552
1.164573
2.249836
2.959126
2.010484
3.150279
2.192492
2.932968
4.082037
4.665449
3.784898
4.920425
4.050163
4.688065
5.883309
6.427357
5.567872
6.693757
5.859635
6.455757
7.669991
8.187763
7.335705
8.449917
7.634707
8.207151
9.425973
9.925903
9.085476
10.18441
9.386511
9.943785
11.15123
11.63264
10.80963
11.88654
11.11073
11.65057
12.84139
12.49981
12.80091
1.155734
1.306162
0.1991448
1.069614
0.2149953
1.136442
1.300287
1.333175
0.220263
1.119529
0.2250851
1.141007
1.342673
1.349077
0.2280669
1.142106
0.2276849
1.145237
1.355948
1.360606
0.2295019
1.151266
0.2284919
1.156448
1.371507
1.375917
0.2308985
1.163988
0.2289526
1.166662
1.384291
1.393972
0.2319102
1.177973
0.2289437
1.182774
1.39667
1.4108
0.2328381
1.198197
0.2303161
1.200873
1.410062
1.42575
0.2330751
1.219371
0.2316171
1.218158
1.420608
1.437844
0.2325823
1.238628
0.2324347
1.232328
1.424795
1.441406
0.2317119
1.249548
0.2321609
1.24025
1.417152
1.431902
0.2299703
1.248216
0.2292914
1.237355
1.395897
1.409683
0.2248978
1.2339
0.2228692
1.224455
1.35414
1.367813
0.2166836
1.201769
0.2126165
1.194958
1.283107
1.294734
0.204677
1.145807
0.1989146
1.139279
1.175061
1.180316
0.1878813
1.056844
0.1795258
1.047212
1.025679
1.024112
0.1651015
0.9307286
0.154711
0.9182515
0.8248088
0.8058122
0.1336538
0.755328
0.1215876
0.7349199
0.5808928
0.50556
0.09498619
0.5365357
0.08133905
0.4878276
0.3064355
0.09542552
0.05493485
0.2842515
0.06381821
0.02865835
51.97218
51.9642
51.97106
0.05663357
51.96919
51.98992
51.9641
51.98693
0.08925743
51.98919
52.02482
51.98378
52.02238
0.1310725
52.03008
52.08668
52.02154
52.08614
0.188845
52.09144
52.15935
52.07974
52.15944
0.2739095
52.16727
52.25085
52.1566
52.24745
0.4078405
52.26473
52.36463
52.24979
52.3568
52.38723
52.36856
51.96872
51.96429
51.96772
1.392018
0.2036405
1.270234
1.501715
0.206293
1.250316
51.96242
51.97316
51.9618
51.97011
1.488607
0.2087218
1.265956
1.523016
0.2088651
1.256401
51.9604
51.97127
51.95861
51.96498
1.529396
0.2083968
1.259372
1.536038
0.2083134
1.257639
51.95777
51.96742
51.95647
51.96271
1.537494
0.2087974
1.259593
1.537612
0.2083842
1.258421
51.95625
51.96524
51.9551
51.95981
1.537721
0.2084918
1.25813
1.536782
0.2085287
1.259551
51.955
51.95977
51.95635
51.96478
1.535748
0.2078932
1.257373
1.52904
0.2079554
1.259205
51.95671
51.9626
51.95807
51.96783
1.522215
0.2085763
1.256522
1.487601
0.2089347
1.26552
51.95901
51.96529
51.96084
51.97176
1.500153
0.2063283
1.250612
1.391078
0.2025713
1.268128
51.96225
51.97038
51.96296
51.9731
1.429233
0.1976476
1.165881
1.214668
3.148087
2.190464
2.931519
2.247666
2.957449
4.917551
4.047969
4.685865
4.080396
4.663838
6.68528
5.855476
6.448639
5.879683
6.422464
8.429609
7.625139
8.186757
7.66071
8.176555
10.10192
9.390023
9.905917
9.39363
9.938801
11.89182
11.12444
11.65312
11.15766
11.63979
12.80639
12.84434
1.060529
0.2086939
1.145698
1.153155
1.317166
1.107613
0.2626248
1.137615
1.308386
1.353172
1.136108
0.2268127
1.148168
1.337567
1.349903
1.150668
0.2282707
1.157366
1.356288
1.361101
1.163837
0.2289063
1.166987
1.371571
1.376202
1.178079
0.2289507
1.182802
1.384477
1.394049
1.198071
0.2303388
1.200815
1.39671
1.41067
1.219114
0.2322141
1.219692
1.409848
1.425524
1.240589
0.2525826
1.242957
1.419531
1.434925
1.266265
0.247307
1.261404
1.433929
1.438625
1.255452
0.2306544
1.254932
1.415338
1.445207
1.208275
0.2099583
1.208745
1.349878
1.379141
1.149577
0.2020589
1.145574
1.278987
1.293406
0.9454545
0.1532343
0.9395564
1.031294
1.027048
0.7661632
0.1224231
0.744222
0.8232816
0.8136044
0.5335304
0.2006377
0.4722705
0.5942978
0.5175319
0.2909719
0.06335753
0.3099317
0.09436608
51.96471
51.97027
0.02870135
51.97115
51.96424
51.99135
0.03717612
0.0828352
51.96709
51.99548
51.98395
52.02439
0.08744121
0.1426825
51.99076
52.02472
52.02577
52.08132
0.1399209
0.1675938
52.02765
52.08903
52.07814
52.15566
0.2236677
52.07796
52.16326
52.15761
52.2455
52.17375
52.25191
52.24957
52.35276
0.4796479
52.26297
52.35254
52.36627
0.507443
52.36332
51.96886
51.97165
0.4412627
0.5378013
0.3746467
0.6593067
0.4187814
0.6236808
0.3284829
0.7372363
0.4095142
0.6645464
0.3277302
0.7603777
0.417044
0.6726921
0.3311731
0.7660132
0.4207432
0.6767129
0.3368611
0.7719221
0.4265271
0.6823958
0.3427206
0.776194
0.4322086
0.6858583
0.3483628
0.7797415
0.4385426
0.6879722
0.3536158
0.7831159
0.4444782
0.6911915
0.356301
0.785853
0.4499871
0.6907112
0.3628231
0.7777433
0.4489616
0.6910222
0.3659978
0.7644658
0.4463711
0.6836679
0.3666279
0.7427102
0.4403718
0.6691602
0.3631969
0.7094722
0.4289406
0.647513
0.3538872
0.6602395
0.4070947
0.6145804
0.3322221
0.5915588
0.3754453
0.5627629
0.3015384
0.5067304
0.332761
0.4931386
0.254581
0.3968381
0.2709303
0.3970038
0.1938488
0.2713432
0.1961744
0.2751081
0.1148517
0.1458375
0.1164127
0.1334244
0.6986375
0.1500886
0.2001335
0.5162528
0.6010684
0.1000341
0.114065
1.144063
0.2613408
0.3171037
0.8882458
0.9668333
0.1603598
0.1843075
1.674411
0.3836678
0.4544866
1.280787
1.39149
0.2336029
0.2663957
2.33464
0.5326669
0.6291537
1.743779
1.918492
0.3230179
0.3713792
3.224019
0.7280291
0.8675122
2.346225
2.628335
0.4396329
0.5153959
4.489273
0.9987926
1.219528
3.178775
3.648663
0.6008873
0.7318349
1.409446
4.447676
0.8476132
51.9714
0.01282161
0.003801744
51.9706
52.00835
0.04385187
51.95974
0.01851735
0.01998482
51.94932
51.99037
52.04903
0.07625246
51.96945
0.03338576
0.03641716
51.94972
52.02243
52.11024
0.1162028
51.99983
0.04994747
0.05445759
51.97208
52.07622
52.18518
0.1708164
52.05584
0.06889383
0.07537102
52.02424
52.14732
52.27212
0.249058
52.12769
0.09244903
0.1012863
52.09556
52.23182
52.37789
0.3679295
52.21915
0.1244509
0.13565
52.18893
52.33667
52.34097
0.1736723
52.31314
51.95561
51.96613
51.96495
51.95493
0.5381745
0.5421779
0.272002
0.06633817
0.1375849
0.2592944
0.06779909
51.96622
0.004318033
51.96559
0.004027803
0.5392639
0.5374492
0.2241321
0.06811174
0.178301
0.2070902
0.06576889
51.9633
0.003529517
51.96312
0.003345416
0.5397287
0.5408944
0.1907715
0.06415199
0.1854146
0.1854554
0.0630723
51.96056
0.003156299
51.96042
0.003117976
0.5395336
0.5408177
0.1824743
0.0626775
0.1889566
0.1805068
0.06233851
51.95882
0.003153246
51.95862
0.00313191
0.5396631
0.540977
0.1804711
0.06233423
0.1880439
0.1824069
0.06267171
51.9575
0.003143921
51.95763
0.003132763
0.5394509
0.5407057
0.1854415
0.06307935
0.1828474
0.190678
0.06417117
51.95869
0.00312354
51.95896
0.003123869
0.540304
0.5402852
0.206855
0.06577454
0.1669169
0.2236879
0.0680917
51.9616
0.003195162
51.96143
0.003277112
0.5324094
0.5375169
0.2585292
0.06771496
0.1357934
0.2709613
0.06624372
51.96473
0.003539566
51.96485
0.003671819
0.5252495
0.5454187
1.252054
0.2203
1.242079
1.406871
1.423888
1.068614
0.1851508
1.066095
1.182553
1.180859
0.598125
0.09855869
0.1032869
0.5719776
0.6908028
0.1521213
0.1547203
0.9597974
0.1486924
0.1688102
1.057703
1.137932
0.2274426
0.25719
1.367931
0.2220137
0.2641579
1.580663
1.680835
0.3470517
0.4002067
1.778149
0.3510495
0.8047785
2.154409
2.250073
0.4145587
0.4509027
2.455549
0.9679237
1.057656
2.833317
3.062545
0.5265386
0.6200106
3.591902
1.394381
0.7790588
3.879485
4.419225
0.7077405
1.116693
0.8476436
5.711181
1.41428
51.96873
0.004566656
51.96723
0.004422145
0.3953324
0.6493189
0.4491472
0.5464578
0.5276658
0.5465215
0.3456353
0.7227424
0.4231552
0.6340897
0.3267004
0.7530929
0.4154812
0.6660895
0.3283776
0.7644538
0.4181516
0.6747164
0.3325767
0.7695134
0.4226667
0.6792953
0.3384124
0.7754056
0.4285356
0.6850716
0.3445742
0.7808636
0.4351026
0.6898603
0.3509985
0.7855544
0.4420775
0.6936195
0.3576098
0.788671
0.4474119
0.6968121
0.3632912
0.7873036
0.451209
0.6954139
0.3677872
0.7804407
0.4528
0.6913391
0.3700435
0.7654019
0.4506097
0.6808754
0.3695488
0.7412312
0.44387
0.6629971
0.3643536
0.7008921
0.4288637
0.6346728
0.3503419
0.6450214
0.4044841
0.593551
0.3254847
0.569206
0.3672297
0.5300795
0.2869995
0.4723881
0.3150579
0.4486601
0.2322119
0.3535449
0.2451246
0.3442983
0.1644957
0.2162913
0.1619407
0.2213202
0.06428954
0.03977475
0.0335362
0.07789428
51.96711
0.02194854
51.97971
0.01294884
0.008321732
51.99378
51.96158
51.9673
51.96474
51.96566
51.9677
51.96809
0.004855657
0.004698295
51.96676
51.95084
0.04890477
52.00505
0.02683532
0.02437138
52.02979
51.96355
51.96644
0.07979241
52.04594
0.04251461
0.0394007
52.07541
51.98464
52.01364
0.1194014
52.1105
0.06052186
0.05672822
52.14352
52.0319
52.07709
0.1757972
52.18764
0.08213761
0.07735217
52.22337
52.09663
52.16061
0.25972
52.28167
0.1100803
0.1047402
52.3192
52.17848
52.27067
0.3930703
52.40195
0.1493468
0.1431708
52.43862
52.2843
0.5327271
0.5375809
51.96427
0.003561455
0.003685788
51.96447
0.5401536
0.5403765
51.96121
0.003193716
0.003277499
51.96106
0.540307
0.5405487
51.95859
0.00312162
0.00312169
51.95906
0.5402336
0.5412558
51.95756
0.003144396
0.003133189
51.95766
0.5404757
0.5410224
51.95851
0.00315345
0.003131678
51.95846
0.5393872
0.5398936
51.96078
0.003158828
0.003120793
51.9607
0.538363
0.5382221
51.96374
0.003521777
0.00334584
51.96357
0.536848
0.5416564
51.96654
0.00425002
0.003942497
51.96629
0.4392942
0.5380152
1.029687
1.382087
1.370073
1.073426
0.3917772
0.645156
0.4438341
0.5438288
2.383681
2.002967
1.955566
2.372421
2.899982
3.140889
3.144786
2.924112
4.174511
3.799643
3.758415
4.145929
4.685708
4.904032
4.913699
4.701837
5.955743
5.571695
5.53825
5.921075
6.458321
6.674255
6.683864
6.470403
7.71824
7.337825
7.300953
7.685152
8.207355
8.432512
8.439029
8.228702
9.466437
9.088351
9.029654
9.424431
9.969196
10.18483
9.866631
10.22011
9.970306
11.20892
10.83211
10.80668
11.15415
11.68254
11.87653
11.88525
11.68963
12.51402
12.48429
0.35954
0.649383
0.4114844
0.6042101
0.3280438
0.1509059
0.6650871
0.4199194
0.6148326
0.3519003
0.1512599
0.648713
0.4488274
0.1468883
0.5644024
0.3098341
0.7279479
0.1498546
0.4068474
0.6014056
0.3248403
0.7365607
0.4116051
0.6595355
0.3266418
0.7610509
0.4148134
0.6725881
0.3305824
0.7640028
0.4191861
0.6755406
0.3323032
0.7690624
0.4221251
0.6793935
0.3367583
0.7715798
0.426214
0.6822188
0.3383879
0.7752537
0.4284375
0.6850389
0.3427359
0.7761337
0.4321908
0.6858332
0.3445904
0.7807833
0.4350851
0.6898267
0.3483739
0.7796687
0.43851
0.6879255
0.3509986
0.7854351
0.4420217
0.6936049
0.3534719
0.7830997
0.4444104
0.6909838
0.3576992
0.7876467
0.447083
0.6969682
0.3533736
0.7845094
0.4490279
0.6863707
0.3608
0.7677645
0.4417877
0.6926503
0.4142421
0.7642926
0.4349482
0.2038077
0.6770176
0.3759976
0.7481317
0.4460791
0.1508501
0.6448662
0.3873155
0.7420649
0.152786
0.4454986
0.6444698
0.2608994
0.3925576
0.2795731
0.3880978
0.2422781
0.1022878
0.3380723
0.0963304
0.2665381
0.3333418
0.06233895
0.03776957
0.03235174
0.07613276
51.97195
0.0126416
0.003344917
51.97152
51.96837
0.0127907
0.02207087
51.9796
0.008298299
51.99418
51.96287
51.96812
51.96669
51.96547
51.96614
51.96855
0.01815798
0.05019953
51.96368
0.01058359
51.95704
51.98024
51.96863
0.07165529
52.00833
52.03454
51.96373
52.05044
0.01655232
0.08510111
51.97117
0.03609244
51.95181
52.02393
51.96786
0.1024356
52.04601
0.03943277
52.07584
51.9861
52.10434
0.02510244
0.1150931
51.99958
0.05055195
51.9723
52.07293
52.00772
0.03188095
0.1183889
52.11295
0.05401292
52.15167
52.02875
52.06378
52.07514
52.12409
52.18497
52.2124
52.1092
52.27109
52.12669
52.09521
52.23058
52.16302
52.28316
52.31991
52.17965
52.37618
52.22066
52.18896
52.33364
52.26661
0.1729922
0.1772273
52.40406
52.42258
52.27162
0.1851743
52.35231
52.37419
51.95599
51.96723
51.96589
51.95514
0.1396972
0.2552963
2.385772
2.005356
1.957495
2.374853
4.176887
3.801079
3.760592
4.147982
5.95954
5.575053
5.54146
5.924594
7.718998
7.341172
7.309862
7.681584
9.464587
9.092091
9.060777
9.427326
11.18169
10.81705
10.78603
11.14465
12.50796
12.47711
0.01752242
0.3138102
0.08831905
0.2457771
0.01428033
0.3510575
0.1033723
0.2631914
0.01787312
0.3570471
0.1089859
0.2661398
0.01965523
0.3579227
0.110082
0.2673348
0.02161225
0.3586963
0.1109895
0.2687972
0.02402688
0.3584927
0.11179
0.2697428
0.02710841
0.3573692
0.112692
0.2703044
0.03076939
0.3552315
0.1135782
0.2704881
0.03531817
0.3517083
0.1145362
0.270251
0.039459
0.344752
0.1145423
0.2670427
0.04362237
0.3345028
0.1138954
0.261279
0.04717024
0.3196375
0.1126853
0.2526191
0.05300958
0.2985089
0.1075712
0.2407617
0.05652563
0.271413
0.101393
0.2233183
0.05805856
0.2373505
0.09263815
0.199615
0.05728406
0.1971941
0.0816724
0.1701139
0.05245373
0.1489115
0.06681298
0.1340099
0.04245889
0.09754581
0.04851004
0.09568241
0.02662107
0.05029747
0.02814669
0.05068775
0.003741781
0.001881358
0.03686206
0.03019553
0.03175666
0.06338205
0.0551426
0.05735054
0.09330936
0.0847558
0.08381181
0.1317236
0.1199585
0.1110841
0.1858146
0.1663576
0.1407871
0.268677
0.2307012
0.1743797
0.4031168
0.333851
0.2220437
51.96013
51.97046
51.96564
51.96263
51.97856
51.9637
51.98021
52.00634
51.97975
52.00712
52.07237
52.00855
52.08844
52.13746
52.09047
52.14696
52.22431
52.15585
52.23831
52.33103
52.25761
52.33914
52.36823
0.1630059
0.1638055
0.001717101
0.001745439
51.97325
51.96455
51.9704
0.1561647
0.1580311
0.001654023
0.001649552
51.96479
51.95821
51.96307
0.1575049
0.159041
0.001628793
0.001617674
51.96184
51.95573
51.96085
0.1550242
0.1590357
0.00163975
0.001631268
51.96105
51.95516
51.96047
0.1559975
0.1586933
0.001640013
0.001631586
51.96059
51.95554
51.9611
0.1576563
0.1581112
0.001624881
0.001616527
51.96105
51.95687
51.96218
0.1576166
0.1569736
0.00162579
0.001626711
51.96348
51.95979
51.96538
0.1565107
0.1576286
0.001545573
0.001547674
51.97112
51.96571
51.97427
0.1563475
0.1647986
0.001739796
0.001720748
51.98415
51.96668
51.98276
52.00938
51.98133
52.01026
52.07829
52.01354
52.06063
52.12674
52.06986
52.13819
52.25948
52.14183
52.24144
52.35109
52.25968
52.32496
1.03102
1.383107
1.37106
1.074059
0.01954708
0.3107053
0.0979941
0.2283993
0.1575662
0.1636117
2.902038
3.143614
3.14771
2.926874
4.687957
4.906312
4.915899
4.70388
6.462557
6.678914
6.689887
6.474855
8.220104
8.432675
8.442132
8.231202
9.960392
10.16803
10.17596
9.972345
11.66946
11.87024
11.87668
11.68224
0.0105524
0.349381
0.101562
0.2598668
0.01577439
0.3565535
0.1078175
0.265004
0.01846585
0.3580758
0.1093741
0.2670485
0.01970284
0.3588985
0.1100346
0.2681882
0.02116829
0.3596764
0.1108583
0.2693375
0.02285785
0.3598158
0.111711
0.2700162
0.02486509
0.3589662
0.1125306
0.2700345
0.02721004
0.3566403
0.1131785
0.2689345
0.02974694
0.3518033
0.1131975
0.2662406
0.03230483
0.3438474
0.1123907
0.2612805
0.03483868
0.331604
0.110488
0.2532964
0.03711167
0.3146105
0.107093
0.241695
0.03865883
0.290556
0.1017457
0.2242616
0.04086626
0.2571282
0.09418057
0.2044733
0.04142822
0.2151497
0.08394223
0.1791266
0.03941142
0.1689021
0.07092037
0.1461192
0.03527805
0.1201784
0.05324461
0.108713
0.02891828
0.06855229
0.03383864
0.06584782
0.01096771
0.005571281
0.002522763
0.01624091
0.1588579
0.2076399
0.08484765
0.07201917
0.1818593
0.07116961
0.171323
0.06473364
0.02425697
0.03450429
0.02260371
0.03611638
0.06221338
0.02990303
0.02325107
0.0237461
51.96617
51.96178
51.96317
51.9695
51.96512
51.9724
51.96639
51.97252
51.97203
51.96761
51.96496
0.001808819
0.001785591
51.96723
51.96359
51.9651
51.96371
51.96682
0.06038045
0.04767018
0.0505377
51.97705
51.96517
51.97933
51.97181
51.96602
51.97948
51.9785
51.97406
51.99195
51.9805
51.98854
51.98924
51.98083
51.9724
0.09469577
0.07875348
0.08096132
52.00142
51.98052
52.00639
51.99198
51.98221
52.00608
52.00481
51.99926
52.0279
52.01078
52.02423
52.02523
52.01029
51.99663
0.1367583
0.1149374
0.11418
52.04893
52.01415
52.05475
52.03335
52.01721
52.05507
52.05272
52.05145
52.09021
52.06462
52.08541
52.08558
52.06505
52.0479
0.1945378
0.1597209
0.1513888
52.11647
52.07166
52.12378
52.09541
52.07543
52.12396
52.12161
52.11839
52.16496
52.13361
52.15765
52.15944
52.1342
52.1132
0.2791528
0.2197452
0.1967528
52.19817
52.1436
52.20574
52.17193
52.14831
52.20665
52.20366
52.20103
52.25697
52.21997
52.24852
52.25031
52.22123
52.19431
0.4129552
0.3098456
0.2615757
52.29893
52.23344
52.31018