/*--------------------------------*- C++ -*----------------------------------*\
  =========                 |
  \\      /  F ield         | OpenFOAM: The Open Source CFD Toolbox
   \\    /   O peration     | Website:  https://openfoam.org
    \\  /    A nd           | Version:  7
     \\/     M anipulation  |
\*---------------------------------------------------------------------------*/
FoamFile
{
    version     2.0;
    format      ascii;
    class       volScalarField;
    location    "0.09";
    object      nut;
}
// * * * * * * * * * * * * * * * * * * * * * * * * * * * * * * * * * * * * * //

dimensions      [0 2 -1 0 0 0 0];

internalField   nonuniform List<scalar> 
73374
(
0.0002779056
0.001339767
0.001314388
0.001305879
0.001303721
0.001303148
0.001302953
0.001302886
0.001302896
0.001302961
0.001303101
0.000280198
0.001307184
0.001260183
0.001245701
0.001241834
0.001240681
0.001240396
0.001240297
0.0012403
0.001240443
0.001240713
0.0002800694
0.001296311
0.001243397
0.001225381
0.001220316
0.001218734
0.001218258
0.001218063
0.001218065
0.001218262
0.001218617
0.0002798971
0.001293451
0.001238615
0.001219397
0.001213734
0.001211882
0.001211239
0.001211011
0.001211024
0.001211244
0.001211652
0.0002797042
0.001292532
0.00123709
0.001217425
0.001211492
0.001209468
0.001208724
0.001208456
0.001208462
0.001208684
0.001209111
0.0002794711
0.001292063
0.001236404
0.00121653
0.001210452
0.001208353
0.00120754
0.001207253
0.001207249
0.001207464
0.001207891
0.0002792446
0.001291786
0.001236037
0.00121608
0.001209942
0.001207801
0.001206965
0.001206669
0.001206666
0.001206883
0.001207309
0.0002790161
0.001291571
0.001235784
0.001215792
0.001209628
0.001207478
0.001206637
0.001206358
0.001206381
0.001206619
0.001207062
0.0002787925
0.001291389
0.001235588
0.001215588
0.001209424
0.001207294
0.00120649
0.001206284
0.001206406
0.001206752
0.001207272
0.0002785713
0.001291222
0.001235421
0.001215429
0.001209287
0.001207211
0.001206519
0.001206511
0.001206939
0.001207622
0.001208399
0.000278353
0.001291067
0.001235275
0.001215307
0.001209219
0.001207263
0.001206887
0.001207592
0.001209097
0.001211017
0.001212739
0.0002781373
0.001290921
0.001235148
0.001215221
0.001209222
0.001207479
0.001207809
0.001211313
0.001217212
0.001222814
0.001228166
0.0002779233
0.001290782
0.001235038
0.001215169
0.001209295
0.001207883
0.00120929
0.001217175
0.001244959
0.001252199
0.001278035
0.0002777096
0.001290654
0.001234952
0.001215154
0.001209425
0.001208387
0.001210983
0.001222467
0.001251121
0.000567114
0.0005852412
0.0002774919
0.001290541
0.001234896
0.001215178
0.001209586
0.001208844
0.001212355
0.001227127
0.001274509
0.0005847212
0.0002859954
0.0002772647
0.001290451
0.001234885
0.001215253
0.00120977
0.001209204
0.001213183
0.001229746
0.001277508
0.0005898717
0.0002963087
0.0002770229
0.001290392
0.001234913
0.001215368
0.001209969
0.001209496
0.001213642
0.00123044
0.001277914
0.0005902522
0.0002969216
0.0002767607
0.001290353
0.001234938
0.00121546
0.001210114
0.001209664
0.001213791
0.00123066
0.001279326
0.0005911413
0.0002978111
0.000276475
0.001290282
0.001234868
0.001215404
0.001210046
0.001209492
0.00121324
0.001228346
0.001276665
0.0005904235
0.0002987519
0.000276166
0.0005787759
0.0006186684
0.0001010063
0.0001006813
0.0001017433
0.0001010196
0.0001009542
0.0001008712
0.0001008485
0.0001008716
0.0001009058
0.000100937
0.0006132154
0.0001007656
0.0001013682
0.0001015363
0.0001017662
0.0001017773
0.0001016065
0.0001016858
0.0001017361
0.0001017325
0.0001017272
0.001294786
0.000101158
0.0001010436
0.0001010101
0.0001010483
0.0001010197
0.0001009927
0.0001009809
0.0001009883
0.0001009815
0.0001009607
0.001277933
0.0001010338
0.0001007526
0.0001008079
0.0001008388
0.0001008346
0.0001008546
0.0001008494
0.0001008382
0.0001008213
0.0001008059
0.001270986
0.0001008795
0.0001006481
0.0001006277
0.000100624
0.0001006099
0.0001006284
0.0001006208
0.0001006158
0.0001006137
0.0001006126
0.001269267
0.0001009191
0.0001006345
0.0001006211
0.0001006242
0.0001006185
0.0001006261
0.0001006211
0.0001006172
0.0001006146
0.0001006125
0.001268741
0.0001009115
0.0001006122
0.0001005947
0.0001005956
0.0001005883
0.0001005921
0.0001005895
0.0001005889
0.0001005888
0.0001005891
0.001268444
0.0001009216
0.0001006111
0.0001005933
0.0001005945
0.000100591
0.0001005918
0.0001005913
0.0001005907
0.0001005904
0.0001005912
0.001268229
0.0001009172
0.0001006078
0.0001005889
0.0001005895
0.0001005859
0.0001005874
0.0001005861
0.0001005867
0.0001005869
0.0001005882
0.001268044
0.0001009149
0.0001006069
0.0001005889
0.0001005896
0.0001005859
0.0001005867
0.0001005861
0.0001005864
0.0001005875
0.0001005889
0.001267871
0.0001009094
0.0001006055
0.0001005874
0.0001005878
0.0001005836
0.0001005837
0.0001005842
0.0001005853
0.0001005877
0.0001005906
0.001267705
0.0001009045
0.0001006045
0.000100587
0.0001005875
0.0001005842
0.0001005836
0.0001005846
0.0001005849
0.0001005874
0.0001005944
0.001267543
0.000100901
0.0001006038
0.0001005856
0.0001005862
0.000100582
0.0001005821
0.0001005828
0.0001005846
0.0001005911
0.0001006012
0.001267385
0.0001009005
0.0001006031
0.0001005858
0.0001005868
0.0001005836
0.0001005814
0.0001005818
0.0001005872
0.0001005917
0.0001006335
0.001267233
0.0001009046
0.0001006031
0.0001005839
0.0001005875
0.0001005808
0.00010059
0.0001005812
0.0001005812
0.0001005754
0.0001005774
0.00126709
0.0001009158
0.0001006031
0.000100584
0.0001005856
0.0001005808
0.0001005807
0.0001005804
0.000100584
0.0001005521
0.0001007297
0.001266957
0.0001009348
0.0001006042
0.0001005837
0.0001005867
0.0001005815
0.0001005901
0.0001005825
0.000100589
0.00010057
0.0001008797
0.001266831
0.0001009612
0.000100606
0.0001005844
0.0001005869
0.0001005828
0.0001005867
0.0001005854
0.000100595
0.0001005691
0.0001006396
0.001266695
0.000100993
0.000100609
0.0001005862
0.0001005901
0.0001005848
0.0001005971
0.0001005918
0.0001006141
0.0001006224
0.0001021352
0.001266514
0.0001010282
0.0001006126
0.0001005889
0.0001005924
0.0001005872
0.0001005997
0.0001005995
0.0001006176
0.0001006545
0.0001009178
0.0001007583
0.0001009364
0.0001006918
0.0001007169
0.0001006913
0.0001006749
0.0001006699
0.0001006688
0.0001006486
0.0001006823
0.0001006508
0.0006080889
0.0001005695
0.0001005687
0.0001005212
0.000100501
0.0001005142
0.0001005078
0.0001005116
0.0001005164
0.000100501
0.0001005061
0.001272656
0.0001010111
0.0001005466
0.0001005474
0.0001005519
0.0001005408
0.0001005442
0.0001005412
0.000100541
0.0001005456
0.0001005435
0.001240445
0.0001012125
0.0001005452
0.0001005428
0.0001005434
0.0001005436
0.0001005434
0.000100544
0.0001005439
0.0001005438
0.000100544
0.001229514
0.0001008702
0.000100544
0.0001005428
0.0001005435
0.0001005433
0.0001005437
0.0001005435
0.0001005436
0.0001005444
0.0001005445
0.001226721
0.0001008865
0.0001005441
0.0001005432
0.0001005435
0.0001005436
0.0001005439
0.000100544
0.0001005442
0.0001005445
0.000100545
0.001225881
0.0001008549
0.0001005448
0.0001005439
0.0001005441
0.0001005443
0.0001005446
0.0001005448
0.0001005451
0.0001005458
0.0001005463
0.001225485
0.0001008597
0.0001005445
0.0001005437
0.0001005439
0.0001005441
0.0001005444
0.0001005448
0.0001005453
0.0001005461
0.000100547
0.001225234
0.000100854
0.0001005444
0.0001005437
0.0001005439
0.0001005442
0.0001005445
0.0001005451
0.0001005458
0.0001005469
0.0001005482
0.001225039
0.0001008506
0.0001005443
0.0001005436
0.0001005437
0.000100544
0.0001005444
0.000100545
0.0001005461
0.0001005475
0.0001005498
0.001224861
0.0001008455
0.0001005441
0.0001005434
0.0001005435
0.0001005438
0.0001005442
0.000100545
0.0001005463
0.0001005485
0.0001005515
0.001224688
0.0001008416
0.0001005438
0.0001005431
0.0001005432
0.0001005434
0.0001005437
0.0001005445
0.0001005462
0.0001005487
0.0001005554
0.001224517
0.0001008373
0.0001005436
0.0001005429
0.0001005428
0.0001005429
0.0001005431
0.000100544
0.000100546
0.0001005522
0.0001005603
0.001224352
0.0001008375
0.0001005434
0.0001005426
0.0001005424
0.0001005423
0.0001005422
0.0001005429
0.0001005462
0.0001005509
0.0001005888
0.001224198
0.000100841
0.0001005434
0.0001005424
0.0001005421
0.0001005417
0.0001005412
0.0001005418
0.0001005423
0.0001005668
0.0001005655
0.001224063
0.0001008518
0.0001005435
0.0001005425
0.0001005422
0.0001005418
0.0001005414
0.0001005412
0.0001005442
0.0001005476
0.0001006823
0.001223952
0.0001008694
0.0001005439
0.0001005429
0.0001005427
0.0001005425
0.0001005424
0.0001005432
0.0001005471
0.0001005693
0.0001008782
0.001223861
0.0001008938
0.0001005445
0.0001005435
0.0001005436
0.0001005438
0.0001005446
0.0001005457
0.0001005546
0.0001005637
0.0001006407
0.001223768
0.0001009227
0.0001005454
0.0001005444
0.0001005449
0.0001005459
0.000100548
0.0001005524
0.0001005725
0.000100622
0.0001030924
0.001223625
0.0001009542
0.0001005463
0.0001005455
0.0001005463
0.0001005484
0.000100551
0.0001005609
0.0001005771
0.0001006525
0.000100931
0.0001007286
0.0001012859
0.0001006992
0.0001007255
0.0001006567
0.0001007451
0.0001006464
0.0001006753
0.0001006618
0.0001006497
0.0001006621
0.0006072179
0.0001005904
0.0001005342
0.000100541
0.0001005339
0.0001005371
0.0001005227
0.0001005114
0.0001005128
0.0001005074
0.0001005052
0.001264327
0.0001010433
0.0001005665
0.0001005445
0.0001005364
0.0001005385
0.0001005381
0.0001005426
0.0001005405
0.00010054
0.0001005412
0.001228149
0.0001012465
0.0001005452
0.0001005416
0.0001005438
0.0001005429
0.0001005437
0.0001005432
0.0001005433
0.0001005435
0.0001005435
0.001214865
0.0001008551
0.0001005443
0.0001005437
0.0001005439
0.000100544
0.0001005445
0.000100544
0.0001005439
0.0001005437
0.0001005443
0.001211427
0.0001008825
0.0001005438
0.0001005429
0.0001005428
0.000100543
0.0001005432
0.0001005433
0.0001005437
0.0001005443
0.0001005447
0.001210363
0.0001008481
0.0001005447
0.0001005441
0.0001005443
0.0001005444
0.0001005447
0.000100545
0.0001005453
0.0001005458
0.0001005463
0.001209884
0.0001008531
0.0001005444
0.0001005438
0.0001005441
0.0001005443
0.0001005446
0.0001005449
0.0001005455
0.0001005461
0.0001005471
0.00120961
0.0001008472
0.0001005444
0.0001005438
0.000100544
0.0001005443
0.0001005447
0.0001005451
0.0001005459
0.000100547
0.0001005483
0.001209422
0.0001008452
0.0001005442
0.0001005436
0.0001005438
0.000100544
0.0001005445
0.0001005451
0.0001005461
0.0001005475
0.0001005497
0.001209244
0.0001008393
0.000100544
0.0001005434
0.0001005436
0.0001005438
0.0001005442
0.000100545
0.0001005462
0.0001005486
0.0001005515
0.001209052
0.0001008349
0.0001005438
0.0001005431
0.0001005432
0.0001005434
0.0001005437
0.0001005444
0.0001005461
0.0001005486
0.0001005551
0.001208845
0.000100831
0.0001005436
0.0001005429
0.0001005428
0.0001005429
0.0001005431
0.0001005439
0.0001005457
0.0001005518
0.0001005601
0.001208648
0.000100832
0.0001005434
0.0001005426
0.0001005424
0.0001005423
0.0001005423
0.0001005428
0.0001005465
0.0001005514
0.0001005885
0.001208477
0.0001008357
0.0001005434
0.0001005424
0.0001005422
0.0001005417
0.0001005413
0.0001005419
0.0001005425
0.0001005706
0.0001005668
0.001208341
0.0001008465
0.0001005435
0.0001005425
0.0001005422
0.0001005418
0.0001005414
0.0001005413
0.0001005442
0.0001005498
0.0001006818
0.001208247
0.0001008636
0.0001005439
0.0001005429
0.0001005427
0.0001005425
0.0001005424
0.0001005432
0.0001005472
0.0001005688
0.0001008932
0.001208189
0.0001008875
0.0001005445
0.0001005435
0.0001005436
0.0001005438
0.0001005446
0.0001005456
0.0001005546
0.0001005639
0.000100639
0.001208137
0.0001009159
0.0001005453
0.0001005444
0.0001005449
0.0001005459
0.0001005481
0.0001005522
0.0001005726
0.0001006227
0.0001030359
0.001208031
0.0001009468
0.0001005463
0.0001005455
0.0001005463
0.0001005484
0.0001005511
0.0001005607
0.0001005772
0.0001006539
0.000100932
0.000100731
0.0001014339
0.0001006853
0.0001007047
0.0001007161
0.0001006412
0.0001006615
0.000100659
0.0001006494
0.0001006562
0.0001006437
0.0006071601
0.0001005853
0.0001005067
0.0001005471
0.0001005329
0.0001005019
0.0001004975
0.0001005013
0.0001004997
0.0001004953
0.0001004965
0.00126263
0.0001010621
0.0001005661
0.0001005395
0.0001005406
0.0001005453
0.0001005444
0.0001005422
0.0001005432
0.0001005437
0.0001005425
0.001225509
0.0001012924
0.0001005465
0.0001005414
0.0001005426
0.0001005431
0.000100543
0.0001005426
0.0001005429
0.0001005429
0.0001005434
0.001211637
0.0001008706
0.000100544
0.000100544
0.0001005427
0.0001005441
0.0001005429
0.0001005442
0.0001005445
0.000100544
0.0001005439
0.001207886
0.0001008975
0.0001005441
0.0001005427
0.0001005432
0.0001005432
0.0001005434
0.0001005435
0.0001005437
0.0001005439
0.0001005448
0.001206645
0.0001008483
0.0001005447
0.0001005441
0.0001005441
0.0001005444
0.0001005444
0.0001005449
0.0001005454
0.0001005457
0.0001005462
0.001206079
0.0001008548
0.0001005444
0.0001005439
0.0001005438
0.0001005442
0.0001005442
0.0001005449
0.0001005456
0.0001005462
0.0001005469
0.001205846
0.0001008508
0.0001005443
0.0001005438
0.0001005438
0.0001005442
0.0001005445
0.0001005451
0.0001005459
0.0001005469
0.0001005482
0.001205742
0.0001008456
0.0001005442
0.0001005436
0.0001005437
0.000100544
0.0001005444
0.000100545
0.0001005461
0.0001005475
0.0001005497
0.001205591
0.0001008411
0.000100544
0.0001005434
0.0001005435
0.0001005438
0.0001005442
0.000100545
0.0001005463
0.0001005486
0.0001005515
0.001205343
0.0001008404
0.0001005438
0.0001005431
0.0001005432
0.0001005434
0.0001005437
0.0001005444
0.0001005461
0.0001005486
0.0001005551
0.001205012
0.00010083
0.0001005436
0.0001005428
0.0001005428
0.0001005428
0.000100543
0.0001005439
0.0001005457
0.0001005519
0.0001005602
0.001204695
0.0001008343
0.0001005434
0.0001005426
0.0001005424
0.0001005423
0.0001005422
0.0001005428
0.0001005463
0.0001005511
0.0001005877
0.001204458
0.0001008353
0.0001005434
0.0001005424
0.0001005422
0.0001005417
0.0001005413
0.0001005418
0.0001005423
0.0001005699
0.0001005647
0.001204293
0.0001008472
0.0001005435
0.0001005425
0.0001005422
0.0001005418
0.0001005414
0.0001005413
0.0001005443
0.0001005497
0.0001006812
0.001204205
0.0001008641
0.0001005439
0.0001005429
0.0001005427
0.0001005425
0.0001005424
0.0001005432
0.0001005472
0.0001005681
0.0001008869
0.001204173
0.0001008885
0.0001005445
0.0001005435
0.0001005436
0.0001005438
0.0001005446
0.0001005456
0.0001005544
0.000100563
0.0001006387
0.001204157
0.0001009168
0.0001005453
0.0001005444
0.0001005449
0.0001005459
0.000100548
0.0001005522
0.0001005723
0.0001006225
0.0001031046
0.001204085
0.0001009482
0.0001005463
0.0001005455
0.0001005463
0.0001005484
0.000100551
0.0001005606
0.0001005771
0.0001006493
0.0001009339
0.0001007299
0.0001015924
0.0001006788
0.0001007605
0.0001006414
0.0001006522
0.0001006449
0.0001006782
0.0001006685
0.0001006434
0.0001006415
0.000607133
0.0001005969
0.0001004997
0.0001005386
0.0001005158
0.0001004943
0.000100507
0.0001005071
0.000100496
0.0001005004
0.0001004943
0.001263753
0.000101016
0.0001005642
0.0001005404
0.0001005557
0.0001005422
0.0001005485
0.0001005411
0.0001005418
0.0001005419
0.0001005468
0.001227218
0.0001012984
0.0001005464
0.0001005429
0.000100544
0.0001005428
0.0001005435
0.0001005427
0.0001005426
0.0001005431
0.0001005439
0.001213441
0.0001008706
0.0001005452
0.0001005424
0.0001005464
0.0001005428
0.0001005461
0.0001005432
0.0001005433
0.0001005436
0.0001005452
0.001209405
0.0001008909
0.0001005438
0.000100543
0.0001005435
0.0001005434
0.0001005442
0.0001005436
0.0001005436
0.0001005442
0.0001005449
0.001207747
0.0001008472
0.0001005448
0.0001005437
0.0001005444
0.0001005444
0.0001005449
0.0001005447
0.000100545
0.0001005456
0.0001005464
0.001207008
0.0001008534
0.0001005445
0.0001005436
0.0001005441
0.0001005441
0.0001005447
0.0001005447
0.0001005453
0.0001005459
0.0001005471
0.001206979
0.0001008485
0.0001005444
0.0001005436
0.000100544
0.0001005441
0.0001005446
0.000100545
0.0001005458
0.0001005468
0.0001005483
0.001207222
0.0001008495
0.0001005442
0.0001005436
0.0001005437
0.000100544
0.0001005444
0.000100545
0.000100546
0.0001005474
0.0001005497
0.00120721
0.0001008405
0.000100544
0.0001005434
0.0001005435
0.0001005438
0.0001005442
0.000100545
0.0001005462
0.0001005486
0.0001005515
0.001206755
0.0001008366
0.0001005438
0.0001005431
0.0001005432
0.0001005434
0.0001005437
0.0001005444
0.0001005461
0.0001005486
0.0001005552
0.001205929
0.0001008313
0.0001005436
0.0001005428
0.0001005428
0.0001005428
0.000100543
0.0001005439
0.0001005457
0.0001005519
0.0001005603
0.001205055
0.000100836
0.0001005434
0.0001005426
0.0001005424
0.0001005423
0.0001005422
0.0001005428
0.0001005463
0.0001005511
0.0001005878
0.001204451
0.0001008367
0.0001005434
0.0001005424
0.0001005422
0.0001005417
0.0001005413
0.0001005418
0.0001005422
0.0001005699
0.0001005645
0.00120415
0.0001008474
0.0001005435
0.0001005425
0.0001005422
0.0001005418
0.0001005414
0.0001005413
0.0001005441
0.0001005496
0.0001006818
0.001204053
0.0001008639
0.0001005439
0.0001005429
0.0001005427
0.0001005425
0.0001005424
0.0001005432
0.0001005475
0.0001005681
0.0001008892
0.001204053
0.0001008881
0.0001005445
0.0001005435
0.0001005436
0.0001005438
0.0001005447
0.0001005457
0.0001005543
0.0001005644
0.0001006376
0.00120408
0.0001009166
0.0001005453
0.0001005444
0.0001005449
0.0001005458
0.000100548
0.0001005519
0.0001005722
0.0001006165
0.0001030589
0.001204033
0.0001009477
0.0001005463
0.0001005455
0.0001005463
0.0001005484
0.0001005511
0.0001005606
0.0001005776
0.0001006485
0.0001009297
0.001203849
0.0001007277
0.000101465
0.0001006953
0.0001006666
0.000100711
0.0001006406
0.0001006652
0.0001006469
0.0001006379
0.0001006578
0.0001006524
0.0006073722
0.0001005983
0.0001005003
0.000100548
0.0001005295
0.0001005006
0.0001004976
0.0001005031
0.0001005005
0.0001005106
0.0001005105
0.001270863
0.000100976
0.0001005647
0.0001005399
0.000100542
0.0001005463
0.000100544
0.0001005412
0.0001005418
0.0001005404
0.0001005392
0.001237777
0.0001012699
0.0001005468
0.0001005418
0.0001005423
0.0001005434
0.0001005432
0.0001005429
0.000100543
0.000100543
0.0001005436
0.001224705
0.000100882
0.0001005439
0.000100544
0.0001005435
0.0001005442
0.0001005429
0.0001005441
0.0001005438
0.0001005449
0.0001005438
0.001219385
0.0001009629
0.0001005443
0.0001005427
0.0001005433
0.000100543
0.0001005434
0.0001005433
0.0001005439
0.0001005442
0.0001005447
0.001216532
0.0001008986
0.000100545
0.0001005441
0.0001005443
0.0001005444
0.0001005445
0.0001005449
0.0001005453
0.0001005459
0.0001005464
0.001215042
0.0001008592
0.0001005445
0.0001005439
0.0001005439
0.0001005443
0.0001005444
0.000100545
0.0001005455
0.0001005463
0.000100547
0.001215972
0.0001008292
0.0001005442
0.0001005438
0.0001005438
0.0001005443
0.0001005445
0.0001005451
0.0001005459
0.000100547
0.0001005483
0.001217399
0.0001007994
0.0001005441
0.0001005436
0.0001005437
0.000100544
0.0001005444
0.0001005451
0.0001005461
0.0001005475
0.0001005497
0.001217731
0.0001008371
0.000100544
0.0001005434
0.0001005435
0.0001005438
0.0001005442
0.000100545
0.0001005462
0.0001005486
0.0001005515
0.001216726
0.0001008968
0.0001005439
0.0001005431
0.0001005432
0.0001005434
0.0001005437
0.0001005444
0.0001005461
0.0001005486
0.0001005551
0.001214382
0.0001008605
0.0001005438
0.0001005428
0.0001005429
0.0001005429
0.0001005431
0.0001005439
0.0001005457
0.0001005518
0.0001005602
0.001210778
0.0001008571
0.0001005435
0.0001005426
0.0001005424
0.0001005423
0.0001005423
0.0001005428
0.0001005465
0.0001005513
0.0001005885
0.001208314
0.0001008301
0.0001005434
0.0001005424
0.0001005422
0.0001005417
0.0001005413
0.0001005419
0.0001005425
0.0001005704
0.0001005653
0.001207711
0.0001008445
0.0001005435
0.0001005425
0.0001005422
0.0001005418
0.0001005414
0.0001005413
0.0001005441
0.00010055
0.0001006814
0.001207612
0.0001008604
0.0001005439
0.0001005429
0.0001005427
0.0001005425
0.0001005424
0.0001005433
0.0001005472
0.0001005703
0.0001008795
0.00120773
0.0001008866
0.0001005445
0.0001005435
0.0001005436
0.0001005438
0.0001005447
0.0001005458
0.0001005538
0.0001005676
0.0001006499
0.001207877
0.0001009143
0.0001005453
0.0001005444
0.0001005449
0.0001005458
0.0001005481
0.0001005518
0.0001005735
0.0001006107
0.0001034318
0.001207839
0.0001009485
0.0001005463
0.0001005455
0.0001005463
0.0001005484
0.0001005511
0.0001005611
0.000100578
0.0001006509
0.0001010501
0.001207639
0.0001009776
0.0001005472
0.0001005463
0.0001007335
0.0001013336
0.0001006865
0.0001007937
0.0001006973
0.0001007038
0.0001006661
0.0001006396
0.000100704
0.0001006753
0.0001006578
0.0006100044
0.0001005927
0.0001005306
0.0001005562
0.0001005435
0.0001005308
0.0001005234
0.0001005214
0.0001005183
0.0001005127
0.0001005107
0.001290777
0.000100806
0.0001005627
0.0001005385
0.000100538
0.0001005442
0.0001005412
0.0001005434
0.0001005407
0.0001005428
0.0001005448
0.001272052
0.0001011472
0.0001005446
0.0001005421
0.0001005433
0.0001005429
0.0001005434
0.0001005434
0.0001005436
0.0001005435
0.000100544
0.001261603
0.0001008636
0.0001005443
0.0001005445
0.000100543
0.0001005429
0.0001005435
0.0001005439
0.0001005435
0.0001005439
0.0001005453
0.001244591
0.0001010237
0.000100545
0.0001005427
0.0001005432
0.0001005433
0.0001005435
0.000100544
0.0001005441
0.0001005444
0.0001005451
0.001248985
0.0001010051
0.0001005456
0.0001005441
0.0001005443
0.0001005442
0.0001005446
0.0001005449
0.0001005452
0.0001005457
0.0001005464
0.001232714
0.0001008784
0.0001005447
0.0001005438
0.0001005439
0.000100544
0.0001005444
0.0001005448
0.0001005453
0.000100546
0.000100547
0.00124921
0.0001007274
0.0001005438
0.0001005439
0.0001005438
0.0001005441
0.0001005445
0.0001005451
0.0001005458
0.0001005469
0.0001005482
0.001243806
0.0001007373
0.0001005435
0.0001005438
0.0001005437
0.000100544
0.0001005444
0.000100545
0.0001005461
0.0001005475
0.0001005497
0.001255751
0.0001008155
0.000100544
0.0001005435
0.0001005435
0.0001005438
0.0001005442
0.000100545
0.0001005463
0.0001005485
0.0001005515
0.001242449
0.0001009593
0.0001005445
0.000100543
0.0001005432
0.0001005433
0.0001005437
0.0001005444
0.0001005462
0.0001005487
0.0001005553
0.001246781
0.0001009664
0.0001005443
0.0001005428
0.0001005429
0.0001005428
0.0001005431
0.000100544
0.0001005459
0.0001005522
0.0001005603
0.001226745
0.0001008789
0.0001005437
0.0001005426
0.0001005424
0.0001005422
0.0001005422
0.0001005428
0.0001005462
0.000100551
0.0001005888
0.001222856
0.0001008477
0.0001005434
0.0001005424
0.0001005421
0.0001005417
0.0001005412
0.0001005418
0.0001005423
0.0001005666
0.000100566
0.001221892
0.0001008527
0.0001005435
0.0001005425
0.0001005422
0.0001005418
0.0001005414
0.0001005412
0.0001005442
0.0001005483
0.0001006788
0.00122178
0.0001008648
0.0001005439
0.0001005429
0.0001005427
0.0001005425
0.0001005424
0.0001005435
0.0001005467
0.0001005709
0.0001008789
0.001222221
0.0001008879
0.0001005445
0.0001005435
0.0001005436
0.0001005438
0.0001005447
0.0001005457
0.0001005538
0.0001005695
0.0001006523
0.001222717
0.0001009211
0.0001005453
0.0001005444
0.0001005449
0.0001005458
0.0001005481
0.0001005518
0.0001005742
0.0001006113
0.0001036233
0.001222761
0.0001009539
0.0001005463
0.0001005455
0.0001005463
0.0001005485
0.0001005511
0.0001005614
0.0001005776
0.0001006471
0.0001010507
0.001222657
0.0001009779
0.0001005472
0.0001005463
0.0001005474
0.0001005496
0.0001007185
0.0001012574
0.0001006986
0.0001007394
0.0001006898
0.0001006429
0.0001006432
0.0001006443
0.0001007307
0.000100711
0.0001012794
0.0006145628
0.0001011145
0.0001020032
0.0001026698
0.0001027825
0.0001028237
0.0001028038
0.000102654
0.000102497
0.0001020824
0.0001020244
0.000603206
0.0001007857
0.0001009195
0.0001010478
0.0001010544
0.0001010123
0.0001010338
0.00010099
0.0001010002
0.0001009137
0.0001009344
0.0005847128
0.000100652
0.0001007794
0.0001008373
0.0001008371
0.0001008172
0.0001008158
0.0001008018
0.0001008158
0.0001007762
0.0001008053
0.0005800248
0.0001006219
0.0001006374
0.000100652
0.0001006552
0.0001006498
0.000100644
0.0001006393
0.0001006405
0.0001006453
0.000100645
0.0005750945
0.0001005913
0.0001006337
0.0001006156
0.0001006369
0.0001006321
0.0001006298
0.0001006247
0.0001006216
0.0001006254
0.0001006182
0.001265563
0.0001009394
0.0001006284
0.0001005867
0.0001005966
0.0001005924
0.0001005912
0.0001005878
0.0001005879
0.000100589
0.0001005882
0.001266287
0.0001008921
0.0001006122
0.0001005856
0.0001005897
0.0001005881
0.0001005875
0.0001005857
0.0001005862
0.0001005872
0.0001005866
0.001269318
0.0001008662
0.0001005875
0.0001005888
0.000100585
0.0001005842
0.0001005843
0.0001005846
0.0001005852
0.0001005862
0.0001005875
0.0005724994
0.000100643
0.0001006005
0.0001005864
0.0001005874
0.0001005836
0.0001005838
0.0001005842
0.0001005852
0.0001005866
0.0001005888
0.0005767012
0.0001006326
0.0001006061
0.0001005884
0.0001005869
0.000100583
0.0001005833
0.000100584
0.0001005852
0.0001005876
0.0001005905
0.0005738581
0.0001005879
0.0001006028
0.0001005826
0.0001005866
0.0001005825
0.0001005828
0.0001005835
0.0001005849
0.0001005874
0.0001005943
0.001264612
0.0001008833
0.0001006327
0.0001005821
0.0001005883
0.0001005819
0.0001005821
0.0001005828
0.0001005845
0.0001005911
0.0001006012
0.001262895
0.0001009702
0.0001006096
0.0001005818
0.0001005874
0.000100583
0.0001005814
0.0001005818
0.0001005871
0.0001005917
0.0001006335
0.001260575
0.0001009004
0.0001006086
0.0001005837
0.0001005879
0.0001005808
0.0001005893
0.0001005811
0.0001005812
0.0001005757
0.0001005631
0.001259074
0.0001009161
0.0001006039
0.0001005833
0.0001005856
0.0001005808
0.0001005807
0.0001005804
0.0001005842
0.0001005463
0.0001007053
0.00125887
0.0001009351
0.0001006092
0.0001005844
0.0001005863
0.0001005815
0.000100587
0.0001005826
0.0001006693
0.0001005677
0.0001008787
0.001259942
0.0001009455
0.00010061
0.0001005839
0.0001005862
0.0001005828
0.0001005837
0.0001005861
0.0001005982
0.0001006094
0.0001006758
0.001260606
0.0001009808
0.0001006103
0.0001005864
0.0001005905
0.0001005848
0.0001006034
0.0001005919
0.0001006124
0.0001006386
0.000102207
0.001262008
0.0001010367
0.0001006195
0.0001005873
0.0001005916
0.0001005872
0.0001005981
0.0001005993
0.0001006187
0.0001006424
0.0001009826
0.001263288
0.0001010563
0.0001006234
0.0001005902
0.0001005965
0.0001005887
0.00010062
0.0001005991
0.000100706
0.0001010201
0.0001010274
0.0001010265
0.0001010943
0.0001013495
0.0001012418
0.0001009704
0.0001011116
0.0001013849
0.0001009119
0.0002773754
0.001338879
0.001307881
0.001298803
0.001296357
0.001296009
0.001297219
0.001298723
0.001298119
0.001298863
0.00129952
0.0002729792
0.001314078
0.001260454
0.00124453
0.001240267
0.001238874
0.00123878
0.001238893
0.001238916
0.001239235
0.001239644
0.0002798858
0.001305221
0.001245466
0.001225743
0.001220207
0.001218449
0.001217883
0.001217765
0.001217793
0.001218019
0.001218328
0.0002700614
0.001303596
0.001241141
0.001220091
0.0012139
0.001211839
0.001211114
0.001210899
0.001210932
0.001211196
0.001211591
0.0005909849
0.001302615
0.001239685
0.001218277
0.001211817
0.001209593
0.001208751
0.001208486
0.001208529
0.001208839
0.001209289
0.0005851828
0.001300919
0.001238843
0.001217399
0.001210814
0.001208515
0.001207623
0.00120734
0.001207394
0.001207725
0.001208241
0.0005707252
0.00129961
0.001238418
0.001216963
0.001210333
0.001207995
0.001207086
0.001206802
0.001206877
0.001207235
0.001207804
0.000580922
0.001298546
0.001238177
0.001216684
0.001210031
0.001207686
0.001206778
0.001206513
0.001206622
0.001207015
0.001207637
0.0005861285
0.001300567
0.001238198
0.001216524
0.00120984
0.001207509
0.001206638
0.001206444
0.001206649
0.001207152
0.001207864
0.0002703741
0.001301336
0.001238189
0.001216387
0.0012097
0.001207422
0.001206658
0.001206657
0.001207156
0.001207976
0.001208933
0.0005917548
0.001300788
0.001237799
0.001216204
0.001209614
0.001207462
0.001207013
0.001207711
0.001209264
0.001211284
0.001213136
0.0005842417
0.001298298
0.001237199
0.001215998
0.001209577
0.001207655
0.001207909
0.001211393
0.001217308
0.001222946
0.001228339
0.0005708819
0.001295884
0.001236695
0.001215838
0.001209604
0.00120803
0.001209356
0.001217192
0.001244957
0.001252129
0.001277796
0.000574431
0.001295625
0.001236546
0.001215781
0.001209702
0.001208497
0.001210945
0.001222237
0.001250802
0.0001220841
0.0001166886
0.000567236
0.001297263
0.001236653
0.001215805
0.001209829
0.001208902
0.001212136
0.001225552
0.001271989
0.0001022226
0.0001008134
0.000565937
0.001297263
0.001236625
0.001215841
0.001209974
0.001209204
0.001212842
0.001227987
0.001262746
0.0001030861
0.0001010303
0.0005688733
0.001295415
0.00123641
0.001215884
0.001210153
0.001209494
0.001213284
0.001229819
0.001288572
0.00130839
0.0001020362
0.000577934
0.001293943
0.001236296
0.001215962
0.001210364
0.00120979
0.001213592
0.001229084
0.001265
0.000132286
0.0001017624
0.0005738255
0.001293821
0.001236068
0.001215972
0.001210465
0.001209861
0.001213392
0.001227164
0.001274829
0.0001097448
0.00010102
0.0005764779
0.001292294
0.001235579
0.001215766
0.001210275
0.00120946
0.00121223
0.001223773
0.001252964
0.0001118211
0.0001014125
0.0002589889
0.0006485754
0.0001018522
0.0002713042
0.0001017266
0.0006524472
0.0006361393
0.0001014826
0.0001018451
0.0001029581
0.0001034795
0.0006326001
0.0006305501
0.0001022693
0.0001017036
0.0001031507
0.0001032711
0.000630256
0.0006300882
0.0001027241
0.0001015077
0.000103278
0.0001028398
0.0006300966
0.0006300033
0.0001018979
0.0001013726
0.0001030432
0.0001028837
0.0006300494
0.0006298866
0.0001020777
0.0001015741
0.0001029218
0.0001026708
0.0006300885
0.0006299116
0.0001023174
0.0001018539
0.0001028565
0.0001026622
0.000630194
0.0006299236
0.0001025607
0.000102053
0.000102823
0.000102575
0.0006302311
0.0006299276
0.000102474
0.0001021675
0.0001027972
0.0001024696
0.0006302601
0.0006299533
0.0001024237
0.0001022057
0.000102795
0.0001024399
0.0006303076
0.0006299969
0.0001023524
0.0001022336
0.0001027749
0.0001024408
0.0006369318
0.0002797552
0.0006146958
0.0006122134
0.0001020035
0.0005993462
0.0001013567
0.0006085985
0.0002795172
0.0006054811
0.0006074904
0.0001018342
0.0005933429
0.0001019278
0.0006048342
0.0002794057
0.0006042426
0.0005901573
0.0001016684
0.0005881814
0.000101848
0.0006042527
0.0002792214