/*--------------------------------*- C++ -*----------------------------------*\
  =========                 |
  \\      /  F ield         | OpenFOAM: The Open Source CFD Toolbox
   \\    /   O peration     | Website:  https://openfoam.org
    \\  /    A nd           | Version:  7
     \\/     M anipulation  |
\*---------------------------------------------------------------------------*/
FoamFile
{
    version     2.0;
    format      ascii;
    class       volVectorField;
    location    "0.09";
    object      U;
}
// * * * * * * * * * * * * * * * * * * * * * * * * * * * * * * * * * * * * * //

dimensions      [0 1 -1 0 0 0 0];

internalField   nonuniform List<vector> 
73374
(
(-0.05366912 1.029268 0.007126211)
(0.08021271 1.022285 -0.003886545)
(0.07914736 1.043209 -0.007884398)
(0.0960594 1.044207 0.01963461)
(0.110285 1.038534 0.04471495)
(0.1256359 1.038248 0.04489301)
(0.1481866 1.033697 0.01544174)
(0.1711238 1.035874 0.02361694)
(0.186844 1.038294 0.02295793)
(0.2036771 1.036919 0.02264583)
(0.2212614 1.031821 0.02024431)
(0.00212312 1.074957 -0.007288881)
(0.02815504 0.9438377 0.008152635)
(0.04754215 0.9727826 0.02063977)
(0.07679809 0.9768779 0.022776)
(0.09245688 0.9734962 0.03420453)
(0.1208529 0.9632803 0.02516559)
(0.1416069 0.978814 0.02539529)
(0.1617554 0.9777105 0.02301379)
(0.1839058 0.9723855 0.01789709)
(0.2054338 0.9727012 0.02721003)
(0.2211909 0.9748494 0.02574145)
(-0.003189614 1.048536 -0.001364816)
(0.041605 0.9368238 -0.00416953)
(0.05600469 0.9518716 0.003681456)
(0.08422175 0.9578669 0.004672478)
(0.10129 0.9488933 0.006354209)
(0.1219666 0.9426128 0.004632703)
(0.1415525 0.9541185 0.004850179)
(0.1636475 0.9539115 0.002810489)
(0.1849095 0.949376 0.002773517)
(0.2051322 0.9533216 0.004039359)
(0.223185 0.958013 0.003446424)
(0.0007413974 1.029648 -0.001254178)
(0.02970179 0.9008588 0.000148323)
(0.05016808 0.9107832 0.002909822)
(0.07924568 0.9151344 -0.0008232357)
(0.1013328 0.9095586 -0.0011071)
(0.1222248 0.9054304 -0.00286038)
(0.1454073 0.9117556 -0.001766222)
(0.1691707 0.9133637 -0.003425716)
(0.1923029 0.9119161 -0.004995805)
(0.2129085 0.9175012 -0.004798362)
(0.2338223 0.9251873 -0.004909164)
(0.001286959 1.009931 -0.001596022)
(0.03878657 0.887165 -0.0002315238)
(0.05486239 0.8906385 0.00105919)
(0.0802485 0.8952406 -0.000347563)
(0.1033885 0.8948741 -0.0001514628)
(0.1243182 0.8904178 -0.0005647111)
(0.1472558 0.8962636 -0.0003881309)
(0.1715806 0.8964251 -0.001141491)
(0.1950339 0.8979749 -0.001869747)
(0.2183559 0.9032779 -0.001798903)
(0.2422584 0.9116396 -0.002053728)
(0.001815148 0.983488 -0.001189615)
(0.03584575 0.8601708 0.0002602485)
(0.05512056 0.8649861 -0.0003294679)
(0.07851902 0.8658541 -0.001676389)
(0.1025823 0.8643927 -0.001803476)
(0.1251839 0.8623774 -0.002814114)
(0.1485516 0.8646409 -0.002146905)
(0.1741238 0.8651417 -0.00263116)
(0.1990152 0.8670751 -0.002698225)
(0.2253129 0.8719174 -0.002421608)
(0.252601 0.8800667 -0.002356162)
(0.001709665 0.9590448 -0.001303661)
(0.03629388 0.8391717 0.0006312196)
(0.05556108 0.8432601 0.0003700292)
(0.07900354 0.8433066 -0.0008228415)
(0.1023052 0.843699 -0.001125735)
(0.1252178 0.8414909 -0.001021488)
(0.1494206 0.8432877 -0.001312028)
(0.175389 0.8429023 -0.001104578)
(0.2020341 0.8443048 -0.001095275)
(0.2310877 0.8477735 -0.0008642858)
(0.2621559 0.8544449 -0.0008418975)
(0.001698721 0.9335086 -0.001277267)
(0.03516098 0.8152639 0.0007835937)
(0.05493794 0.8205092 0.000351954)
(0.07795316 0.8198954 -0.0009699277)
(0.10091 0.8185514 -0.0008110582)
(0.1244019 0.8166394 -0.001203553)
(0.1487762 0.8155564 -0.0008624519)
(0.1753937 0.8137683 -0.0009446895)
(0.2035406 0.812823 -0.0007170038)
(0.2354376 0.8132599 -0.0007530432)
(0.2704435 0.8167489 -0.0005945764)
(0.001616604 0.9088331 -0.001350716)
(0.03462843 0.7930243 0.000937749)
(0.05409053 0.7983554 0.0007405234)
(0.07705906 0.7976491 -0.000415049)
(0.09922282 0.7960614 -0.0001021096)
(0.1223712 0.7936782 -0.000410231)
(0.1463559 0.7910722 -0.0001851322)
(0.1725826 0.7875973 -0.000113567)
(0.2013952 0.7834333 3.613527e-05)
(0.2351693 0.7805047 0.0001178058)
(0.2738522 0.7797401 0.0001795171)
(0.001551924 0.884293 -0.001396416)
(0.03384451 0.7707165 0.0009343093)
(0.05302754 0.7760741 0.0008233438)
(0.07551395 0.7750862 -0.0003209263)
(0.09701267 0.7728996 1.562112e-06)
(0.1193894 0.7699065 -0.0003122976)
(0.1426535 0.7650978 -7.944293e-06)
(0.1678031 0.7587407 -0.0004083832)
(0.1966675 0.749424 0.0003139422)
(0.2317676 0.7402874 -0.0007452647)
(0.2728478 0.7306291 0.0001180918)
(0.001460288 0.860122 -0.001472001)
(0.03320023 0.7492236 0.0009641014)
(0.05202906 0.7546552 0.0009145487)
(0.07368531 0.7537815 -0.0001470381)
(0.09402339 0.7515135 0.0002347528)
(0.1145165 0.7483038 0.0002080069)
(0.1351695 0.742184 0.0005687096)
(0.1569306 0.7344494 0.00124567)
(0.1819271 0.7194393 0.001526087)
(0.2129069 0.7063055 0.002307487)
(0.2618195 0.686409 0.001910022)
(0.001368729 0.836257 -0.001562393)
(0.03270706 0.7280583 0.0009476067)
(0.05128682 0.7336798 0.0009305496)
(0.07216446 0.7332954 -0.0001841902)
(0.09151622 0.7313004 0.0002881201)
(0.1100027 0.7285505 -0.000186758)
(0.1287144 0.7212519 0.0005717795)
(0.1467028 0.7101713 -0.001786684)
(0.1708571 0.6899966 0.0002416649)
(0.1971247 0.6566944 -0.005315483)
(0.2309741 0.6106582 -0.002421601)
(0.001310553 0.8125283 -0.001650939)
(0.03250082 0.7072126 0.0009503782)
(0.05110747 0.7132766 0.0009487432)
(0.07109846 0.7138789 -4.595742e-05)
(0.08924965 0.7129848 0.0004819302)
(0.104341 0.7118919 0.0007088282)
(0.1175255 0.704643 0.001426908)
(0.1257094 0.6968318 0.001017253)
(0.1249602 0.6685859 -0.007897086)
(0.1442949 0.6581098 -0.004210614)
(0.1748438 0.5831402 -0.02051043)
(0.0012705 0.7888353 -0.001742494)
(0.03294417 0.6863822 0.0009328895)
(0.05194332 0.6931492 0.0009653401)
(0.07165371 0.6954455 -0.0001993098)
(0.08952599 0.6967346 0.0006794169)
(0.1015721 0.6997984 -0.000330371)
(0.1140528 0.6968796 0.002669459)
(0.1047851 0.7002805 -0.007291997)
(0.1182747 0.6740624 -0.009403191)
(0.02096806 0.6037591 -0.02614344)
(0.0268155 0.5104138 -0.02680513)
(0.001304962 0.7647245 -0.001799285)
(0.03424046 0.6649147 0.0009420498)
(0.05434664 0.6726684 0.0009519131)
(0.0744619 0.6768439 -0.0001773537)
(0.09363671 0.6816185 0.0004876205)
(0.104403 0.6887208 2.100343e-05)
(0.1184254 0.6960683 0.00140071)
(0.1044384 0.7050475 -0.002846693)
(0.1153163 0.7122709 -0.01069991)
(0.008445242 0.7108585 -0.009383196)
(-0.09916252 0.6215819 -0.0155659)
(0.001399903 0.7396486 -0.00184377)
(0.03654086 0.6422111 0.0009774756)
(0.05826241 0.6508884 0.0009968476)
(0.08042719 0.6570136 -0.0002416633)
(0.1013555 0.6649755 0.0005747606)
(0.1159649 0.6768077 -0.0003129448)
(0.1305205 0.6918788 0.002285883)
(0.1269616 0.7117651 -0.003399474)
(0.1281027 0.7371584 0.002744351)
(0.06714736 0.7721024 -0.01391718)
(0.08338511 0.8175061 -0.007193409)
(0.00156871 0.7129597 -0.001874411)
(0.03967694 0.6174822 0.001043155)
(0.06379882 0.6268356 0.001031693)
(0.08839253 0.6345016 -0.0002693371)
(0.1133725 0.6448686 0.0004823631)
(0.1311858 0.6608713 -0.0003579139)
(0.1533543 0.6810824 0.00174948)
(0.1550668 0.7138416 -0.003200689)
(0.1681988 0.7448279 -0.002772418)
(0.1108328 0.8197254 -0.01024576)
(0.07570607 0.8790395 -0.004751161)
(0.001806975 0.6839758 -0.001921331)
(0.0434001 0.5902871 0.001143549)
(0.07019928 0.5999887 0.001106436)
(0.09832109 0.6084994 -0.0002966974)
(0.1276935 0.6205084 0.0005805984)
(0.1519301 0.6388947 -0.0005187677)
(0.1839284 0.6634966 0.002239263)
(0.1979356 0.704235 -0.004354197)
(0.2434742 0.7504729 -0.004401679)
(0.1842138 0.8623648 -0.008572845)
(0.1421687 0.9728449 -0.01106044)
(0.002090168 0.6520572 -0.001990317)
(0.04739561 0.5601929 0.001261102)
(0.07720887 0.569738 0.001151397)
(0.1088099 0.5778481 -0.0003492571)
(0.1438422 0.5898677 0.000458862)
(0.1739818 0.6062332 -0.0007953926)
(0.2199751 0.6303141 0.001716327)
(0.2465503 0.6615231 -0.003577203)
(0.3295429 0.705942 -0.01393781)
(0.3000636 0.852604 -0.009651164)
(0.3426404 1.031162 -0.01024741)
(0.002406587 0.6169711 -0.002048516)
(0.3647345 0.7190199 -0.0160897)
(0.6083062 0.7102621 -0.007331569)
(-0.06483309 0.9064275 -0.06994332)
(-0.007231748 0.9420198 -0.1352545)
(0.02611775 0.928694 -0.2406487)
(0.0250698 0.9305634 -0.1771302)
(0.04019176 0.9279515 -0.1419174)
(0.05111151 0.926824 -0.1341254)
(0.05391814 0.9249992 -0.1191867)
(0.05626252 0.9248821 -0.1072247)
(0.06773335 0.927991 -0.09728059)
(0.06891055 0.928798 -0.0911524)
(0.02270414 1.024912 -0.03933256)
(0.05534867 0.9341442 -0.005976484)
(0.05867723 0.9920506 0.03689992)
(0.07409014 0.9843529 0.02483138)
(0.0902277 0.9961594 0.01995971)
(0.1174826 0.9932816 0.02393419)
(0.136919 1.000871 0.02273612)
(0.1478077 0.9996719 0.02974812)
(0.173613 1.005096 0.04497388)
(0.1978377 1.005722 0.04115)
(0.2128017 1.001542 0.04531941)
(0.01345447 0.9805529 0.008312314)
(0.003266156 0.9581291 -0.000722663)
(0.03788092 0.9873855 0.01437068)
(0.06270119 0.9659206 0.002559592)
(0.08954653 0.9699326 -0.002199559)
(0.1157536 0.9722755 -0.002197538)
(0.1399587 0.9707903 -0.005200194)
(0.1605084 0.9748198 -0.004637331)
(0.1820177 0.9825807 0.0002509147)
(0.2047132 0.9850383 -0.005012747)
(0.2248197 0.9898925 -0.006471412)
(0.02132304 0.9235552 0.001989595)
(0.02681955 0.9401182 -0.004767385)
(0.05877445 0.9531561 0.01728503)
(0.08330772 0.9540466 0.02231919)
(0.09873124 0.96186 0.0265881)
(0.1211381 0.9629032 0.02540865)
(0.1421956 0.9667155 0.03040741)
(0.1594827 0.9676064 0.02979367)
(0.1829278 0.97522 0.02949317)
(0.2054813 0.9787131 0.02516797)
(0.2259272 0.9851729 0.02411816)
(0.008664917 0.9084034 0.002919378)
(0.02401567 0.9180728 -0.003721393)
(0.05116441 0.9165323 0.002441914)
(0.07629725 0.910778 0.002755817)
(0.09882422 0.9103435 0.002070312)
(0.1218394 0.9111632 0.0009702415)
(0.1451422 0.9124214 0.003211004)
(0.1670408 0.9160846 0.003926605)
(0.1907815 0.9220812 0.004962317)
(0.2134847 0.9278564 0.00437871)
(0.2352231 0.9364188 0.004310129)
(0.009590911 0.8828448 0.005121766)
(0.03225032 0.8961837 -0.0008229527)
(0.05771884 0.8983017 0.005729543)
(0.08081459 0.8998392 0.006012548)
(0.1025704 0.9002072 0.005976592)
(0.1247301 0.9021925 0.005160699)
(0.1470944 0.9031641 0.006373941)
(0.1696681 0.906275 0.006486721)
(0.1941159 0.9101291 0.006142594)
(0.2182397 0.9149425 0.005441416)
(0.2425329 0.9224829 0.005162587)
(0.008775214 0.86051 0.002475936)
(0.03098234 0.8696307 -0.0005222989)
(0.05513876 0.8682196 0.00251594)
(0.07830472 0.8682535 0.002527904)
(0.1015037 0.8679017 0.00307115)
(0.1245976 0.868909 0.002587123)
(0.1484883 0.868695 0.002915133)
(0.1732283 0.8696201 0.002618065)
(0.199067 0.8720078 0.002327047)
(0.225947 0.8759949 0.00135735)
(0.2533432 0.8840456 0.001628617)
(0.009856826 0.8378387 0.002048433)
(0.03190625 0.8473989 -1.760831e-05)
(0.05581579 0.8469907 0.002170932)
(0.07820069 0.8474372 0.001642895)
(0.1016171 0.8470687 0.002459611)
(0.1254149 0.8468706 0.00189957)
(0.150047 0.8465047 0.002353537)
(0.1756313 0.8467419 0.001961381)
(0.2025414 0.8481529 0.001848603)
(0.2313839 0.8511311 0.001237152)
(0.2623786 0.8578158 0.001537204)
(0.009775311 0.8148204 0.001314404)
(0.03133554 0.8231812 -0.0001539464)
(0.05487029 0.8220372 0.001456748)
(0.07727943 0.8211746 0.0005614922)
(0.1008127 0.8195292 0.001169833)
(0.1244139 0.8187636 0.0008901082)
(0.149102 0.8174645 0.001209127)
(0.1755613 0.8160332 0.0008582162)
(0.2037313 0.8154375 0.000927124)
(0.235664 0.8154333 0.0005328985)
(0.2709682 0.8187894 0.0007206253)
(0.009899926 0.7924701 0.001079012)
(0.03112292 0.8010259 -0.0001594325)
(0.05442423 0.7997235 0.001051386)
(0.07658547 0.7989032 0.0004221254)
(0.09932047 0.797194 0.0008376615)
(0.1223332 0.7953713 0.0006239295)
(0.146732 0.7925962 0.0007744003)
(0.1728825 0.7889241 0.000689976)
(0.2019413 0.7853636 0.0006063689)
(0.2357127 0.7810272 0.0005157435)
(0.2742095 0.7811907 0.0005004774)
(0.009707728 0.7703059 0.0008565018)
(0.03051771 0.778397 -0.0003027529)
(0.05339002 0.7769807 0.0007541337)
(0.07500122 0.7757757 0.0001483752)
(0.09702997 0.7736168 0.0005053979)
(0.1194372 0.770877 0.0001666271)
(0.142676 0.766187 0.0003261992)
(0.1683998 0.7606099 -0.0002111884)
(0.1964962 0.7517828 0.0001328672)
(0.2319159 0.7429268 -0.000846376)
(0.2742249 0.7335861 -0.0002282736)
(0.009610394 0.7487286 0.0006054029)
(0.0300734 0.7567251 -0.0004153468)
(0.05250082 0.7554895 0.0005692169)
(0.07329023 0.7543692 7.595127e-05)
(0.09437214 0.7522082 0.0003406675)
(0.1149112 0.7487388 0.0002948646)
(0.1364247 0.7431899 0.0002894738)
(0.1587464 0.7338745 0.0008816542)
(0.1850077 0.7226727 0.0002513888)
(0.21435 0.7015533 0.001836331)
(0.2588349 0.6875776 0.001749283)
(0.009502392 0.7273888 0.0006630375)
(0.02969327 0.7353417 -0.0003971759)
(0.05170452 0.7343981 0.0005491549)
(0.0718023 0.7338182 -7.152877e-05)
(0.09150491 0.731887 0.0002303326)
(0.1104896 0.7293374 -0.000313206)
(0.1281247 0.722403 -6.328068e-05)
(0.1476766 0.7145632 -0.001488837)
(0.1656256 0.6959984 0.0005014806)
(0.1961418 0.6729105 -0.004076349)
(0.2381466 0.6225678 -0.0003837175)
(0.009561203 0.7062337 0.0004216519)
(0.02968104 0.714288 -0.0004772043)
(0.05163128 0.7139819 0.0004417499)
(0.07088378 0.7142736 -2.510337e-05)
(0.08991679 0.7136543 0.0001956965)
(0.10554 0.7117155 0.0003441092)
(0.1215227 0.7068499 5.068732e-05)
(0.1328731 0.6940402 0.00277464)
(0.1453925 0.6756028 0.004400206)
(0.1526032 0.6231267 0.01473537)
(0.1728815 0.5791611 0.004946386)
(0.009731755 0.6849519 0.0004323227)
(0.03018228 0.6932042 -0.0004669238)
(0.05233139 0.6938088 0.0004749641)
(0.07156223 0.6958096 -0.0001743974)
(0.08919215 0.6971005 0.0003829675)
(0.1037702 0.6994665 -0.0006004141)
(0.1112467 0.6958035 0.001507459)
(0.117546 0.6949599 -0.002968458)
(0.09057771 0.6690516 0.01120866)
(0.08928636 0.6498033 -0.01389033)
(0.03256228 0.5229043 -0.005672422)
(0.01019959 0.6629797 0.000303601)
(0.03142336 0.6715203 -0.0005516523)
(0.05476133 0.6733447 0.0003875113)
(0.07415365 0.677294 -0.0001720859)
(0.09350616 0.6820378 0.0001720021)
(0.1049627 0.6892273 -0.0002500423)
(0.1179227 0.6962178 0.00033644)
(0.1056914 0.7059995 -0.0006901134)
(0.105975 0.6955576 0.003786169)
(-0.01174228 0.6943299 -0.01245937)
(-0.02060989 0.631882 -0.004498147)
(0.01087489 0.6397848 0.000358263)
(0.03359191 0.6485758 -0.0005802097)
(0.05864076 0.6516304 0.0004071848)
(0.08018302 0.6574845 -0.0002154636)
(0.1009153 0.6656132 0.0003391497)
(0.1171943 0.6770544 -0.0004768961)
(0.128413 0.6930684 0.001374581)
(0.1349241 0.7109735 -0.001686313)
(0.1142865 0.7300729 0.007285716)
(0.08753979 0.7793387 0.003246913)
(-0.02467303 0.7822253 0.009162311)
(0.01182883 0.6146592 0.0003927653)
(0.03646982 0.6235908 -0.0006513241)
(0.06418171 0.6276044 0.0003609202)
(0.08810865 0.6350477 -0.0002491824)
(0.1129627 0.6455824 0.0001999704)
(0.1321917 0.6614981 -0.0005421603)
(0.1512859 0.6821369 0.0006277184)
(0.1609543 0.7144766 -0.002079051)
(0.1554842 0.7507546 0.003824474)
(0.1292796 0.8298556 0.002605574)
(0.03604435 0.8299629 0.01163503)
(0.01290257 0.5872565 0.0005044671)
(0.03992734 0.5961099 -0.0006739254)
(0.07057044 0.6007354 0.0003848451)
(0.09814096 0.6090206 -0.0002428414)
(0.127279 0.6211977 0.0003726792)
(0.1537114 0.6395268 -0.0005234496)
(0.1812945 0.66468 0.001465348)
(0.2064971 0.7054964 -0.002014712)
(0.2253003 0.7588006 0.008812064)
(0.2364617 0.8996208 0.001056255)
(0.09710992 0.969164 -0.02863393)
(0.01407829 0.557251 0.0006278777)
(0.04357826 0.5657295 -0.0007140321)
(0.07752818 0.5704152 0.000343608)
(0.1085564 0.5783629 -0.0003081954)
(0.143375 0.5904737 0.000216668)
(0.1756643 0.6071652 -0.0008729402)
(0.2171769 0.6320564 0.0007119739)
(0.2552013 0.6654428 -0.003044947)
(0.3198549 0.719498 0.0043146)
(0.3156375 0.8441868 -0.007032223)
(0.4012783 1.148157 -0.01208639)
(0.5381715 0.6649295 0.01391549)
(-0.1407963 0.9612337 -0.01683051)
(-0.07139457 0.86104 -0.09240231)
(0.0004055727 0.9533112 -0.1954923)
(0.02464561 0.9682564 -0.2426036)
(0.06653995 0.9908141 -0.1899058)
(0.06803872 0.9746967 -0.2145541)
(0.07604189 0.9324296 -0.1606423)
(0.1052899 0.8386304 -0.1089917)
(0.1284298 0.8979307 -0.1332929)
(0.1240633 0.8635365 -0.09662803)
(0.007170161 1.047675 -0.01677735)
(0.1104641 0.9863555 0.009864392)
(0.127538 0.9970681 0.06578961)
(0.1000052 1.018385 0.1156417)
(0.1216637 1.028626 0.139929)
(0.1289056 1.031856 0.1144654)
(0.1542557 1.030976 0.1306352)
(0.1844821 1.026237 0.1135875)
(0.1766802 1.011193 0.08010493)
(0.186633 1.031661 0.0919288)
(0.2090367 1.024009 0.07291441)
(0.01980119 0.9930632 -0.001797943)
(-0.001025095 0.9749385 -0.01680253)
(0.04578868 0.911795 -0.002468881)
(0.05810513 0.901008 -0.0007049129)
(0.08990969 0.8935619 0.00548078)
(0.1165809 0.8930917 0.009080277)
(0.141324 0.889299 0.005314646)
(0.1677244 0.8940799 0.01516179)
(0.1843529 0.8893391 0.002664884)
(0.202182 0.9070525 0.01238356)
(0.2226581 0.9045484 -0.0005875952)
(0.02971764 0.9329601 0.008519951)
(0.04817327 0.9550872 0.003411672)
(0.07984099 0.9421279 0.02164639)
(0.08897442 0.9508921 0.02956553)
(0.1087949 0.9528935 0.03878364)
(0.1245881 0.9494089 0.03183289)
(0.1437473 0.956229 0.03603752)
(0.1644399 0.9549248 0.03054131)
(0.1842517 0.9466574 0.02444298)
(0.2041379 0.9595915 0.02736179)
(0.2223861 0.9594435 0.02342605)
(0.009356017 0.9098855 -7.328086e-05)
(0.02972716 0.9174739 -0.001605502)
(0.05338874 0.8940096 0.001580029)
(0.07477263 0.8937706 0.00128706)
(0.1019786 0.898158 0.009230322)
(0.1228636 0.8959611 0.006283626)
(0.1463196 0.8979182 0.008683457)
(0.1706557 0.8969504 0.005583641)
(0.1921044 0.8983669 0.005643725)
(0.2114782 0.909761 0.007592442)
(0.2320305 0.9160189 0.007504473)
(0.01006945 0.8896348 0.002325889)
(0.03652748 0.9001021 0.002307459)
(0.05846412 0.890162 0.004318263)
(0.07797151 0.8885809 0.002981919)
(0.1021322 0.8917718 0.005351781)
(0.1241604 0.8896292 0.003916757)
(0.1475804 0.8944166 0.005533153)
(0.1709158 0.8946431 0.004412899)
(0.1933197 0.896391 0.004853263)
(0.2167119 0.9062881 0.006753504)
(0.2398684 0.9135206 0.006297334)
(0.008552261 0.8659296 0.0006204799)
(0.03316954 0.8687036 0.0004102559)
(0.05707201 0.8626238 0.001615425)
(0.07857463 0.8603073 0.001112049)
(0.1025987 0.8598208 0.001296504)
(0.1250243 0.8587081 0.001187741)
(0.1485559 0.8600967 0.00158788)
(0.1736011 0.8606632 0.002030488)
(0.1982458 0.862937 0.002221819)
(0.2237544 0.8717176 0.003333467)
(0.2518923 0.8777633 0.002734196)
(0.01003196 0.8436708 0.0008399266)
(0.03320276 0.8473261 0.001176653)
(0.05604191 0.8419439 0.001495746)
(0.07904336 0.8432976 0.001460038)
(0.1021778 0.841365 0.001296843)
(0.125276 0.8410954 0.001497101)
(0.1494832 0.8414385 0.0009929484)
(0.1750575 0.8420101 0.001630688)
(0.2014692 0.8436664 0.001478179)
(0.2307353 0.8480862 0.002057407)
(0.2620901 0.8544601 0.001691392)
(0.01002681 0.8212929 0.0004790997)
(0.03210359 0.8219367 0.0008698977)
(0.05505593 0.8198747 0.0007713285)
(0.07774059 0.8193132 0.0007120511)
(0.1010493 0.8173181 0.000520718)
(0.1242059 0.8159014 0.0006552324)
(0.1488025 0.8142475 0.00046728)
(0.1750776 0.8130865 0.0007718798)
(0.2034643 0.8120295 0.0007300762)
(0.2354959 0.813284 0.0008857469)
(0.2707257 0.8163946 0.0007542319)
(0.01032013 0.7992517 0.0002969299)
(0.0314371 0.8000958 0.0007316212)
(0.05409211 0.7983903 0.0006630629)
(0.07657516 0.7978043 0.0005291479)
(0.09928144 0.7955073 0.0005808719)
(0.1222856 0.7934456 0.0005628222)
(0.146504 0.7905943 0.00058199)
(0.1724713 0.7872057 0.0006678473)
(0.2015023 0.7833963 0.0005667376)
(0.2353281 0.7800997 0.0006555085)
(0.2738976 0.7801682 0.0004315145)
(0.01016074 0.7770121 0.0002807734)
(0.03065048 0.777389 0.0006045801)
(0.05288846 0.7762397 0.0005205844)
(0.07490079 0.7751775 0.0003377815)
(0.0968833 0.7727157 0.000358647)
(0.1192219 0.76995 0.0002138122)
(0.1424119 0.7649047 0.0002908396)
(0.1678785 0.7593542 0.000108701)
(0.1964768 0.7496442 0.0002192122)
(0.2318989 0.7411394 3.066793e-05)
(0.2740238 0.7313644 -1.694172e-05)
(0.01010237 0.7555697 0.0001992607)
(0.03013049 0.755936 0.0004477322)
(0.05192374 0.755117 0.0004501736)
(0.07308863 0.7540075 0.0002438751)
(0.09407733 0.751619 0.0003047458)
(0.1144343 0.7480924 0.0002174841)
(0.1358612 0.7420252 0.0002097264)
(0.1579066 0.7328429 0.0001639593)
(0.1841518 0.7200288 -0.0001572988)
(0.2142573 0.7019057 -0.0001318993)
(0.2601042 0.6875898 -6.866695e-06)
(0.009899012 0.7341341 0.0002563352)
(0.02962572 0.7346271 0.0004117841)
(0.05103359 0.7341768 0.0004738694)
(0.07146954 0.7336079 0.0001294256)
(0.0910993 0.7314529 0.0002619774)
(0.1096858 0.7288665 -0.000102296)
(0.1274839 0.7208902 3.02556e-05)
(0.145719 0.7127008 -0.0005806815)
(0.1650922 0.6905627 -0.0006416556)
(0.1953858 0.6670626 -0.0008008181)
(0.2373605 0.6177703 -0.0006587522)
(0.009994801 0.7127973 7.385118e-05)
(0.02961944 0.7136293 0.0003333068)
(0.05095868 0.7138224 0.0003709812)
(0.07044348 0.7141736 0.000110336)
(0.08939756 0.7133989 0.0001962427)
(0.1040116 0.7115837 5.110236e-08)
(0.1199891 0.7052392 -0.0002502278)
(0.1258359 0.694396 -0.000733508)
(0.1394513 0.6697663 -0.003078018)
(0.1435505 0.626226 -0.00381478)
(0.1701461 0.5802713 -0.006315999)
(0.01014578 0.6913889 8.491961e-05)
(0.03008676 0.6926261 0.0003482592)
(0.05162575 0.6937275 0.0003900648)
(0.07108925 0.6957902 3.850321e-05)
(0.08879025 0.6970966 0.00026441)
(0.1023158 0.6996007 -0.0002705907)
(0.1107313 0.6963098 -2.69447e-05)
(0.1110861 0.6971103 -0.001034729)
(0.09392874 0.6722499 -0.003012201)
(0.08840715 0.6526439 0.001686958)
(0.02621028 0.53243 -0.0008998795)
(0.0106663 0.6691382 -3.481107e-05)
(0.03136143 0.6709425 0.0003058335)
(0.05406356 0.6732389 0.00030698)
(0.0737174 0.6772864 3.181105e-05)
(0.09310434 0.6820924 0.0001806216)
(0.103865 0.6893526 -0.0001675705)
(0.1172206 0.6968136 -0.0001641136)
(0.1028368 0.7075724 -0.000599427)
(0.108005 0.7005672 -0.002354436)
(-0.003536972 0.695572 -0.001090201)
(-0.01405331 0.6208301 -0.004302093)
(0.01138447 0.6457584 -5.819735e-05)
(0.03357722 0.6480556 0.0003291646)
(0.05792832 0.6515296 0.0003282151)
(0.0798032 0.6574847 2.16253e-05)
(0.1006408 0.6656295 0.0002977277)
(0.1163188 0.6771828 -0.0002084344)
(0.1285541 0.6932017 0.000433256)
(0.1319855 0.7115545 -0.0003711355)
(0.1200873 0.7348049 -6.699601e-05)
(0.09298102 0.7823702 0.005910465)
(-0.0384973 0.7812457 0.002729892)
(0.01239797 0.6204099 -0.0001358844)
(0.03649503 0.623104 0.0003211593)
(0.06343919 0.6274874 0.0002817892)
(0.08769809 0.6350474 3.943129e-06)
(0.112665 0.6455811 0.0001845665)
(0.1311789 0.6616311 -0.0002591315)
(0.151144 0.6821338 -2.429986e-05)
(0.1573121 0.7147871 -0.0008017208)
(0.1566782 0.7451809 -0.001510371)
(0.1329605 0.8318972 0.003937446)
(0.03238897 0.8101213 0.004457857)
(0.01352025 0.5927887 -0.0001668836)
(0.03999718 0.5956685 0.0003504405)
(0.06980383 0.6006227 0.0003036687)
(0.09776918 0.6090051 2.874349e-05)
(0.1271035 0.621207 0.0002681914)
(0.1528235 0.6395564 -0.0001755221)
(0.1818324 0.6647845 0.0002911739)
(0.202986 0.7057746 -0.0002002146)
(0.2303983 0.7577973 -0.0008939682)
(0.2362878 0.8954682 0.005620558)
(0.1113127 0.9626868 -0.00325926)
(0.01474478 0.5625174 -0.0002119719)
(0.04368228 0.5653155 0.0003668127)
(0.07670662 0.5703114 0.0002775878)
(0.1081577 0.578358 1.93361e-06)
(0.1430865 0.5905703 0.0001311736)
(0.1747245 0.607323 -0.0003378273)
(0.2170096 0.6326823 -0.0002714948)
(0.2514845 0.6659221 -0.0006601638)
(0.3197254 0.7205643 -0.001856888)
(0.3168849 0.8404676 0.002842938)
(0.4151021 1.159697 -0.003085668)
(0.5305015 0.6541104 0.00680657)
(-0.2503501 0.9760728 -0.002250214)
(-0.180725 0.9378347 -0.04348629)
(-0.1196189 0.7208961 -0.1429068)
(0.01659257 0.6761504 -0.1094804)
(0.04804396 0.8279064 -0.1518492)
(0.05653001 0.7513417 -0.07896628)
(0.1083426 0.8400986 -0.08210833)
(0.09058207 0.9005828 -0.07420516)
(0.1024776 0.799014 -0.04673156)
(0.1237505 0.8942013 -0.03217812)
(0.003399367 1.056087 -0.01234642)
(0.1051724 1.000355 0.005464476)
(0.1684248 1.040708 -0.0006083062)
(0.1678163 1.001838 0.091433)
(0.09632623 0.9891302 0.06802478)
(0.1081666 1.018028 0.1082002)
(0.126663 1.00841 0.06340465)
(0.1112518 1.023885 0.0569899)
(0.1632962 1.026472 0.04515683)
(0.1789992 1.017933 0.01660783)
(0.191231 1.018498 0.01679887)
(0.02503706 0.9915134 -0.002704675)
(-0.00206275 0.9666553 -0.0006761259)
(0.05231262 0.9237622 -0.008632318)
(0.07210044 0.8721158 0.005296253)
(0.08413035 0.8476824 -0.007513482)
(0.1091691 0.8905753 -3.112268e-05)
(0.1309715 0.8649055 -0.008252373)
(0.1519601 0.8914732 -0.006434448)
(0.1832486 0.9041935 -0.006629575)
(0.1985993 0.9014888 -0.006101451)
(0.2188088 0.9118194 -0.01201308)
(0.03324715 0.9340958 0.003131377)
(0.04702805 0.9531518 0.006613044)
(0.09044944 0.9520693 0.005169939)
(0.1010531 0.953566 0.0159599)
(0.1011536 0.9336264 0.003884777)
(0.1241619 0.9619758 0.006861257)
(0.1425575 0.9429566 0.002086132)
(0.160936 0.9574074 0.00360861)
(0.1835521 0.9590586 0.002479582)
(0.2024312 0.9596279 0.002951385)
(0.2217105 0.963102 0.0003828997)
(0.007768548 0.911515 -0.0005797463)
(0.02851394 0.9146565 0.0008638798)
(0.05377007 0.8960184 -0.001097364)
(0.08217092 0.9031127 0.003169894)
(0.09930906 0.889268 -0.0002529156)
(0.1225816 0.9050543 -0.0003284537)
(0.1470941 0.8933845 0.001131053)
(0.1671907 0.9049434 0.00207581)
(0.1905775 0.9066083 0.002767437)
(0.2115503 0.909411 0.003116908)
(0.2323941 0.9167082 0.001543544)
(0.008985589 0.8914158 0.00124822)
(0.03644363 0.8989402 0.001514868)
(0.05853681 0.8921646 0.001874969)
(0.08142674 0.897814 0.002734972)
(0.1022022 0.8951214 0.003590063)
(0.1248809 0.9008846 0.003778112)
(0.1485002 0.8983559 0.005710082)
(0.1702364 0.9020126 0.005134436)
(0.1945821 0.9036374 0.004479009)
(0.2174258 0.9079325 0.004655228)
(0.2417126 0.9156543 0.004227747)
(0.007736441 0.8660945 0.001286357)
(0.03263806 0.8674466 -3.121807e-05)
(0.05583057 0.8621477 0.001521934)
(0.07771742 0.865048 -0.0003714717)
(0.1018465 0.8644209 0.001556991)
(0.124899 0.8664606 0.00133931)
(0.1488118 0.86616 0.002049636)
(0.1739787 0.8656788 0.0004774346)
(0.1988522 0.8685252 0.0007148321)
(0.2255555 0.8710872 0.001009752)
(0.2527197 0.8796262 0.001360897)
(0.009443692 0.844695 0.001038809)
(0.03230067 0.8464799 0.0002065234)
(0.05564723 0.8455796 0.001385259)
(0.07685855 0.846306 -0.001062646)
(0.1014994 0.8464005 0.001395626)
(0.125284 0.8460306 0.0005161302)
(0.1503247 0.8458012 0.001547121)
(0.17637 0.845258 0.0002712082)
(0.2025545 0.846587 0.0002873141)
(0.2315753 0.8493294 0.0004735113)
(0.2624515 0.8560567 0.001184208)
(0.009627648 0.821466 0.000259915)
(0.03109817 0.8220363 -3.757737e-06)
(0.05420319 0.8207765 0.0006934825)
(0.07649712 0.8204955 -0.0005310804)
(0.1006659 0.8186556 0.0007762936)
(0.1243842 0.8176993 0.0001414263)
(0.1490648 0.8164047 0.00069658)
(0.1758989 0.8146028 -0.0001235859)
(0.2037252 0.8144387 0.0002040298)
(0.235716 0.8142087 0.0002010761)
(0.271079 0.8175896 0.0004897145)
(0.009898338 0.7995804 0.0002852504)
(0.03093607 0.8002306 7.709665e-05)
(0.05370009 0.7994608 0.0005097405)
(0.07620471 0.7985669 0.0001773475)
(0.0991917 0.7970746 0.0005569163)
(0.1222558 0.794942 0.0002061247)
(0.146784 0.7923282 0.0005841423)
(0.1728472 0.7882058 0.0002942636)
(0.2018966 0.7848412 0.0003919878)
(0.2356681 0.7802479 0.0004561773)
(0.2742885 0.7803849 0.0006029412)
(0.009606815 0.7773521 0.000319453)
(0.03021864 0.7774785 6.110369e-05)
(0.05262113 0.7767506 0.0004228485)
(0.07458741 0.7755222 0.0001123997)
(0.09674625 0.7734087 0.000387195)
(0.1192704 0.7706165 3.023119e-05)
(0.1425155 0.7659053 0.0003668887)
(0.1683003 0.7602661 -9.230877e-06)
(0.1964745 0.7512559 0.0003897047)
(0.2318325 0.7422547 -0.000133133)
(0.2745296 0.732621 0.0001208612)
(0.00943524 0.7556877 -0.0001887764)
(0.02979372 0.7559361 -0.0002737999)
(0.05181673 0.7554334 0.0001419262)
(0.07291281 0.7541981 3.702167e-05)
(0.0942188 0.7521845 0.0003211309)
(0.114742 0.7484657 0.0002501371)
(0.1363843 0.7430497 0.0005486044)
(0.1585715 0.7331812 0.0005885783)
(0.1846487 0.7219281 0.0008352467)
(0.2151138 0.7009383 0.0009608402)
(0.2586159 0.6864448 0.001103094)
(0.009230067 0.7340961 0.000683307)
(0.02938898 0.7346259 -1.789908e-05)
(0.05095241 0.7342712 0.0005109577)
(0.07137951 0.7337145 4.675234e-05)
(0.09115994 0.7317994 0.0004079927)
(0.1102256 0.7291764 -2.864242e-06)
(0.127605 0.7219355 0.0006184457)
(0.1470114 0.7136602 -0.000283995)
(0.1660631 0.6929774 0.0008350404)
(0.1965867 0.6696035 -0.0002814931)
(0.2392023 0.6224818 0.0006908274)
(0.009392612 0.7127253 8.632797e-05)
(0.02945612 0.7136197 -0.000230582)
(0.05095694 0.7138439 0.0002538038)
(0.07051723 0.714191 1.424581e-05)
(0.08973327 0.7136945 0.0004055011)
(0.1050915 0.7115577 0.0002765035)
(0.1208713 0.7067871 0.001038434)
(0.1302508 0.6934433 0.00111804)
(0.1421295 0.6731199 0.002723512)
(0.1510306 0.6253732 0.002481579)
(0.1745439 0.583662 0.0002573798)
(0.00957706 0.6913234 0.0005412392)
(0.0299774 0.6925816 1.057619e-05)
(0.05156869 0.6936686 0.0004901441)
(0.07126011 0.6957061 1.14397e-05)
(0.08881289 0.697065 0.0005282235)
(0.1035211 0.6992936 -0.0001106378)
(0.1106031 0.6959112 0.001182005)
(0.1144391 0.6948099 -0.0002279767)
(0.09457373 0.6690318 0.002546006)
(0.0878431 0.6425232 -0.001865252)
(0.03106174 0.5294134 -0.001150317)
(0.0101113 0.6691329 0.0002250505)
(0.03122752 0.6709036 -0.0001336291)
(0.05401914 0.673165 0.0002994403)
(0.07384093 0.6772111 -3.668992e-05)
(0.0932443 0.6820139 0.0004050645)
(0.104664 0.6892519 -7.820577e-06)
(0.1175553 0.6966156 0.0008203943)
(0.103838 0.7065861 0.0001580425)
(0.1076669 0.6977642 0.001464378)
(-0.009103977 0.7007299 0.001116848)
(-0.0021833 0.6109782 2.644795e-05)
(0.01080031 0.6457824 0.0002791202)
(0.0334131 0.6480002 -7.465358e-05)
(0.057826 0.6514504 0.000336167)
(0.07994686 0.6573492 -5.047843e-05)
(0.1005935 0.665517 0.0004685219)
(0.1173614 0.6768734 -0.0001642129)
(0.1283193 0.6931212 0.001153644)
(0.1344908 0.7109116 -0.0002897503)
(0.1189197 0.731286 0.002344952)
(0.09070937 0.7809138 0.001131193)
(-0.03967124 0.781435 0.001044324)
(0.01177655 0.6204386 0.0001629783)
(0.03626862 0.6230343 -0.0001576325)
(0.06330314 0.6273906 0.0002446359)