/*--------------------------------*- C++ -*----------------------------------*\
  =========                 |
  \\      /  F ield         | OpenFOAM: The Open Source CFD Toolbox
   \\    /   O peration     | Website:  https://openfoam.org
    \\  /    A nd           | Version:  7
     \\/     M anipulation  |
\*---------------------------------------------------------------------------*/
FoamFile
{
    version     2.0;
    format      ascii;
    class       volScalarField;
    location    "0.05";
    object      epsilon;
}
// * * * * * * * * * * * * * * * * * * * * * * * * * * * * * * * * * * * * * //

dimensions      [0 2 -3 0 0 0 0];

internalField   nonuniform List<scalar> 
76598
(
0.004540309
0.004505924
0.004501491
0.004497386
0.004492442
0.004487697
0.004483958
0.004481377
0.0009406439
0.0009646523
0.0009716668
0.0009724667
0.0009720755
0.0009718168
0.0009718946
0.0009721002
0.0009587996
0.0009992434
0.001008878
0.001007586
0.001006106
0.001005363
0.001005616
0.001007981
0.0009644347
0.001007511
0.001014774
0.0009965424
0.0009962458
0.0009945985
0.0009891497
0.001004726
0.0009652169
0.00100631
0.0009967459
0.0009876463
0.002171795
0.002151383
0.000959866
0.0009608105
0.0009653053
0.001005662
0.0009976983
0.002176188
0.002034739
0.004326279
0.001963312
0.002014844
0.0009658099
0.001006663
0.000999651
0.002171234
0.004355344
0.0009667883
0.00100944
0.00100313
0.0009985823
0.0009744942
0.0009591052
0.0009559793
0.0009559604
0.0009678843
0.001014306
0.001026973
0.001026634
0.00102216
0.001017932
0.00101621
0.001015539
0.0009686889
0.001017693
0.001034553
0.001038299
0.00103838
0.00103756
0.001036799
0.001036244
0.0009691372
0.001018852
0.001036844
0.001041954
0.001043315
0.001043459
0.001043169
0.001042777
0.0009693691
0.001019339
0.001037693
0.001043249
0.00104502
0.00104547
0.001045361
0.001045047
0.0009695309
0.001019598
0.001038093
0.001043803
0.001045715
0.001046278
0.001046245
0.001045971
0.000969643
0.001019762
0.001038308
0.001044078
0.00104604
0.001046642
0.001046635
0.001046375
0.0009697388
0.001019878
0.001038447
0.001044235
0.001046213
0.001046825
0.001046825
0.001046567
0.0009698249
0.001019977
0.001038553
0.001044345
0.001046323
0.001046936
0.001046933
0.001046673
0.0009699084
0.001020069
0.001038647
0.001044438
0.001046412
0.00104702
0.001047011
0.001046744
0.0009699921
0.001020161
0.00103874
0.001044527
0.001046493
0.001047094
0.001047079
0.001046803
0.0009700814
0.001020258
0.001038837
0.001044619
0.001046578
0.001047169
0.001047144
0.00104686
0.000970178
0.001020363
0.001038942
0.001044717
0.001046669
0.00104725
0.001047214
0.001046919
0.0009702834
0.001020477
0.001039057
0.001044824
0.001046766
0.001047334
0.001047285
0.001046976
0.0009704008
0.001020604
0.001039179
0.001044935
0.001046864
0.001047416
0.00104735
0.001047025
0.0009705289
0.001020735
0.001039302
0.00104504
0.001046949
0.001047479
0.001047392
0.001047046
0.0009706656
0.001020864
0.001039408
0.001045113
0.00104699
0.001047489
0.001047374
0.001047002
0.002048061
0.000972707
0.0009865509
0.0009913364
0.00099193
0.0009915909
0.0009910182
0.0009904167
0.01139027
0.01138679
0.0113846
0.01138469
0.01138466
0.01138445
0.01138417
0.01138394
0.0113838
0.01139063
0.01138704
0.01138718
0.01138722
0.01138723
0.01138696
0.0113865
0.01138618
0.011386
0.011391
0.01138738
0.01138759
0.01138711
0.01138549
0.01138517
0.01138559
0.01138553
0.01138575
0.01139152
0.01138788
0.01138821
0.01138521
0.01138428
0.01139294
0.01139032
0.01138472
0.01138511
0.01139219
0.01138845
0.01138892
0.01138518
0.01139875
0.01142687
0.01135429
0.01137924
0.01138074
0.0113929
0.01138878
0.01138942
0.01138621
0.01140062
0.01147358
0.003768919
0.003677216
0.01139351
0.01138882
0.01138927
0.01138822
0.01139162
0.01139332
0.01139166
0.01139005
0.01138943
0.01139402
0.01138878
0.01138903
0.01138943
0.01138986
0.01139032
0.01139012
0.01138924
0.01138927
0.01139442
0.01138879
0.01138895
0.01138914
0.01138935
0.01138956
0.0113892
0.01138926
0.01138905
0.01139473
0.0113888
0.01138889
0.011389
0.01138911
0.0113892
0.01138913
0.01138897
0.01138906
0.011395
0.01138883
0.01138888
0.01138894
0.01138901
0.01138907
0.01138901
0.01138895
0.01138893
0.01139524
0.01138887
0.0113889
0.01138893
0.01138898
0.01138901
0.01138902
0.01138893
0.01138895
0.01139546
0.01138893
0.01138894
0.01138896
0.01138899
0.01138901
0.01138902
0.01138895
0.01138894
0.01139567
0.01138899
0.011389
0.011389
0.01138902
0.01138904
0.01138905
0.01138897
0.01138897
0.01139587
0.01138906
0.01138906
0.01138906
0.01138908
0.01138909
0.0113891
0.01138902
0.01138901
0.01139608
0.01138915
0.01138914
0.01138913
0.01138915
0.01138916
0.01138916
0.01138908
0.01138908
0.01139631
0.01138924
0.01138924
0.01138922
0.01138924
0.01138924
0.01138925
0.01138916
0.01138915
0.01139656
0.01138935
0.01138935
0.01138933
0.01138935
0.01138935
0.01138935
0.01138926
0.01138924
0.01139683
0.01138948
0.01138947
0.01138946
0.01138947
0.01138947
0.01138947
0.01138937
0.01138935
0.01139714
0.01138962
0.01138962
0.01138961
0.01138962
0.01138962
0.01138961
0.0113895
0.01138947
0.01139748
0.0113898
0.0113898
0.01138979
0.0113898
0.01138979
0.01138977
0.01138965
0.0113896
0.01139788
0.01139
0.01139001
0.01139
0.01139001
0.01139
0.01138997
0.01138983
0.01138977
0.01139589
0.01139025
0.01139026
0.01139026
0.01139027
0.01139025
0.01139021
0.01139004
0.01138995
0.002065578
0.0009895846
0.001016067
0.00102425
0.001025626
0.001025316
0.001024538
0.001023586
0.01139034
0.0113889
0.01138674
0.01138682
0.0113868
0.01138659
0.01138632
0.0113861
0.01138596
0.01138911
0.01138908
0.0113892
0.01138921
0.01138923
0.01138898
0.01138851
0.01138819
0.01138802
0.01138937
0.01138943
0.01138958
0.01138977
0.01139003
0.01138959
0.01138891
0.01138825
0.01138801
0.0113897
0.01138992
0.01139022
0.01139084
0.01139189
0.01139306
0.01139033
0.0113886
0.01137822
0.01139009
0.01139047
0.01139096
0.0113927
0.01139876
0.01142758
0.0113532
0.01137887
0.001256569
0.01139043
0.01139077
0.01139148
0.01139324
0.01140065
0.01147182
0.003759074
0.001249156
0.01139061
0.0113908
0.01139132
0.01139206
0.01139372
0.01139543
0.01139378
0.01139205
0.01138932
0.01139074
0.01139077
0.01139106
0.01139148
0.01139198
0.01139238
0.01139222
0.01139154
0.01139135
0.01139086
0.01139077
0.01139097
0.01139118
0.01139141
0.01139161
0.01139143
0.01139134
0.01139117
0.01139095
0.01139077
0.01139091
0.01139104
0.01139115
0.01139125
0.01139122
0.01139117
0.0113911
0.01139105
0.0113908
0.0113909
0.01139098
0.01139106
0.01139112
0.01139111
0.0113911
0.01139107
0.01139114
0.01139084
0.01139092
0.01139097
0.01139102
0.01139106
0.01139107
0.01139108
0.01139106
0.01139122
0.0113909
0.01139096
0.01139099
0.01139103
0.01139106
0.01139107
0.01139108
0.01139107
0.01139131
0.01139096
0.01139101
0.01139103
0.01139107
0.01139109
0.0113911
0.01139111
0.0113911
0.01139139
0.01139104
0.01139108
0.01139109
0.01139112
0.01139114
0.01139115
0.01139116
0.01139115
0.01139149
0.01139112
0.01139116
0.01139117
0.01139119
0.01139121
0.01139122
0.01139122
0.01139121
0.01139159
0.01139121
0.01139125
0.01139126
0.01139128
0.01139129
0.0113913
0.0113913
0.01139129
0.0113917
0.01139132
0.01139136
0.01139136
0.01139139
0.0113914
0.0113914
0.0113914
0.01139138
0.01139182
0.01139144
0.01139148
0.01139149
0.01139151
0.01139152
0.01139152
0.01139151
0.01139148
0.01139196
0.01139158
0.01139163
0.01139164
0.01139166
0.01139167
0.01139166
0.01139164
0.01139161
0.01139212
0.01139175
0.0113918
0.01139182
0.01139184
0.01139184
0.01139183
0.0113918
0.01139175
0.0113923
0.01139195
0.01139201
0.01139203
0.01139205
0.01139204
0.01139202
0.01139198
0.01139191
0.01139252
0.0113922
0.01139226
0.01139228
0.0113923
0.01139229
0.01139226
0.0113922
0.0113921
0.002068821
0.0009959562
0.001025997
0.001036186
0.001037972
0.001037636
0.001036663
0.001035399
0.01139031
0.01138888
0.01138675
0.01138683
0.01138681
0.01138661
0.01138633
0.01138611
0.01138598
0.01138906
0.01138905
0.0113892
0.01138922
0.01138924
0.01138898
0.01138851
0.0113882
0.01138802
0.01138922
0.0113894
0.01138958
0.01138978
0.01139003
0.0113896
0.0113889
0.01138824
0.01138801
0.01138958
0.01138988
0.01139022
0.01139084
0.0113919
0.01139298
0.01139032
0.0113886
0.01137809
0.01138986
0.01139042
0.01139094
0.01139268
0.01139881
0.01142781
0.01135267
0.01137797
0.001319674
0.01139016
0.01139072
0.01139145
0.01139323
0.01140064
0.01147122
0.00386116
0.00131862
0.01139039
0.01139074
0.01139129
0.01139205
0.01139372
0.0113955
0.01139373
0.0113922
0.01138937
0.01139055
0.0113907
0.01139102
0.01139146
0.01139199
0.01139238
0.01139228
0.01139153
0.01139133
0.01139069
0.0113907
0.01139094
0.01139117
0.01139141
0.01139163
0.01139144
0.01139136
0.01139119
0.0113908
0.0113907
0.01139087
0.01139103
0.01139115
0.01139126
0.01139123
0.01139118
0.01139111
0.0113909
0.01139073
0.01139087
0.01139097
0.01139106
0.01139112
0.01139112
0.01139111
0.01139107
0.01139099
0.01139077
0.01139089
0.01139096
0.01139102
0.01139107
0.01139107
0.01139108
0.01139106
0.01139108
0.01139082
0.01139092
0.01139098
0.01139103
0.01139106
0.01139108
0.01139108
0.01139107
0.01139116
0.01139088
0.01139098
0.01139103
0.01139106
0.01139109
0.0113911
0.01139111
0.0113911
0.01139124
0.01139095
0.01139104
0.01139109
0.01139112
0.01139114
0.01139115
0.01139116
0.01139115
0.01139133
0.01139103
0.01139112
0.01139116
0.01139119
0.01139121
0.01139122
0.01139122
0.01139121
0.01139143
0.01139112
0.01139121
0.01139125
0.01139128
0.01139129
0.0113913
0.0113913
0.01139129
0.01139153
0.01139122
0.01139132
0.01139136
0.01139139
0.0113914
0.0113914
0.0113914
0.01139138
0.01139165
0.01139134
0.01139144
0.01139148
0.01139151
0.01139152
0.01139152
0.01139151
0.01139148
0.01139178
0.01139148
0.01139159
0.01139163
0.01139166
0.01139167
0.01139166
0.01139164
0.01139161
0.01139192
0.01139165
0.01139176
0.01139181
0.01139184
0.01139184
0.01139183
0.0113918
0.01139175
0.01139209
0.01139184
0.01139197
0.01139202
0.01139205
0.01139205
0.01139202
0.01139198
0.01139191
0.01139229
0.01139208
0.01139221
0.01139227
0.01139231
0.0113923
0.01139226
0.0113922
0.01139211
0.002069422
0.0009972176
0.001028047
0.001038643
0.001040535
0.001040158
0.001039071
0.001037652
0.01139031
0.01138887
0.01138675
0.01138682
0.01138681
0.0113866
0.01138633
0.01138611
0.01138598
0.01138907
0.01138905
0.01138919
0.01138921
0.01138923
0.01138897
0.01138851
0.01138819
0.01138801
0.01138924
0.01138939
0.01138957
0.01138977
0.01139002
0.0113896
0.0113889
0.01138824
0.011388
0.01138959
0.01138987
0.0113902
0.01139082
0.01139191
0.01139299
0.01139032
0.0113886
0.01137805
0.01138986
0.0113904
0.01139093
0.01139267
0.01139878
0.01142769
0.01135257
0.01137779
0.001346927
0.01139017
0.0113907
0.01139143
0.01139322
0.01140068
0.01147098
0.003894605
0.001348458
0.0113904
0.01139072
0.01139126
0.01139204
0.01139373
0.01139554
0.01139373
0.01139231
0.01138939
0.01139056
0.01139068
0.011391
0.01139144
0.01139199
0.01139238
0.01139229
0.01139151
0.0113913
0.0113907
0.01139068
0.01139091
0.01139115
0.0113914
0.01139164
0.01139145
0.01139137
0.01139119
0.01139081
0.01139068
0.01139084
0.011391
0.01139114
0.01139126
0.01139124
0.01139119
0.01139111
0.01139091
0.01139071
0.01139083
0.01139095
0.01139104
0.01139112
0.01139112
0.01139111
0.01139107
0.011391
0.01139075
0.01139085
0.01139094
0.01139101
0.01139106
0.01139107
0.01139108
0.01139106
0.01139109
0.0113908
0.01139089
0.01139096
0.01139101
0.01139106
0.01139107
0.01139108
0.01139107
0.01139117
0.01139086
0.01139093
0.011391
0.01139105
0.01139108
0.0113911
0.01139111
0.0113911
0.01139126
0.01139093
0.011391
0.01139106
0.0113911
0.01139113
0.01139115
0.01139115
0.01139114
0.01139135
0.01139101
0.01139108
0.01139113
0.01139117
0.0113912
0.01139121
0.01139122
0.01139121
0.01139144
0.0113911
0.01139117
0.01139122
0.01139126
0.01139129
0.0113913
0.0113913
0.01139128
0.01139155
0.01139121
0.01139127
0.01139133
0.01139137
0.01139139
0.0113914
0.01139139
0.01139138
0.01139166
0.01139133
0.0113914
0.01139145
0.01139149
0.01139151
0.01139152
0.01139151
0.01139148
0.01139179
0.01139147
0.01139154
0.0113916
0.01139164
0.01139166
0.01139166
0.01139164
0.0113916
0.01139194
0.01139163
0.01139171
0.01139178
0.01139182
0.01139183
0.01139182
0.01139179
0.01139174
0.01139211
0.01139183
0.01139192
0.01139199
0.01139203
0.01139204
0.01139202
0.01139198
0.01139191
0.01139231
0.01139206
0.01139216
0.01139224
0.01139228
0.01139229
0.01139226
0.0113922
0.0113921
0.002069086
0.0009963541
0.001026535
0.001036776
0.001038552
0.001038166
0.001037158
0.001035955
0.01139031
0.01138887
0.01138675
0.01138682
0.0113868
0.0113866
0.01138632
0.01138611
0.01138598
0.01138907
0.01138905
0.01138919
0.01138921
0.01138923
0.01138898
0.01138851
0.01138819
0.01138801
0.01138924
0.01138939
0.01138957
0.01138977
0.01139002
0.0113896
0.0113889
0.01138824
0.011388
0.01138959
0.01138987
0.0113902
0.01139082
0.01139191
0.01139297
0.01139033
0.0113886
0.01137806
0.01138987
0.01139041
0.01139093
0.01139267
0.01139879
0.0114277
0.01135254
0.01137867
0.001346916
0.01139016
0.0113907
0.01139143
0.01139322
0.01140065
0.01147082
0.003898096
0.001348558
0.0113904
0.01139072
0.01139126
0.01139204
0.01139373
0.01139554
0.01139373
0.0113923
0.0113894
0.01139056
0.01139068
0.01139099
0.01139145
0.01139199
0.01139238
0.01139229
0.01139151
0.0113913
0.0113907
0.01139068
0.01139091
0.01139115
0.0113914
0.01139164
0.01139145
0.01139137
0.01139119
0.01139081
0.01139068
0.01139084
0.011391
0.01139114
0.01139126
0.01139124
0.01139119
0.01139111
0.01139091
0.01139071
0.01139083
0.01139095
0.01139104
0.01139112
0.01139112
0.01139111
0.01139107
0.011391
0.01139075
0.01139085
0.01139094
0.01139101
0.01139106
0.01139107
0.01139108
0.01139106
0.01139108
0.0113908
0.01139088
0.01139096
0.01139101
0.01139106
0.01139107
0.01139108
0.01139107
0.01139117
0.01139086
0.01139093
0.011391
0.01139105
0.01139108
0.0113911
0.01139111
0.0113911
0.01139127
0.01139093
0.011391
0.01139106
0.0113911
0.01139113
0.01139115
0.01139115
0.01139115
0.01139135
0.01139101
0.01139108
0.01139113
0.01139117
0.0113912
0.01139121
0.01139122
0.01139121
0.01139144
0.0113911
0.01139117
0.01139122
0.01139126
0.01139129
0.0113913
0.0113913
0.01139129
0.01139155
0.01139121
0.01139127
0.01139133
0.01139137
0.01139139
0.0113914
0.01139139
0.01139138
0.01139166
0.01139133
0.0113914
0.01139145
0.01139149
0.01139151
0.01139152
0.01139151
0.01139148
0.01139179
0.01139147
0.01139154
0.0113916
0.01139164
0.01139166
0.01139166
0.01139164
0.0113916
0.01139194
0.01139163
0.01139171
0.01139177
0.01139182
0.01139183
0.01139182
0.01139179
0.01139174
0.01139211
0.01139183
0.01139192
0.01139198
0.01139203
0.01139204
0.01139202
0.01139198
0.01139191
0.01139231
0.01139206
0.01139216
0.01139224
0.01139228
0.01139229
0.01139226
0.0113922
0.0113921
0.002068297
0.0009908611
0.001017758
0.001026088
0.001027464
0.00102708
0.001026327
0.001026449
0.01139031
0.01138888
0.01138674
0.01138681
0.0113868
0.01138659
0.01138631
0.0113861
0.01138597
0.01138906
0.01138905
0.0113892
0.01138922
0.01138924
0.01138899
0.01138852
0.0113882
0.01138802
0.01138922
0.01138939
0.01138957
0.01138978
0.01139003
0.0113896
0.0113889
0.01138824
0.01138801
0.01138958
0.01138989
0.01139022
0.01139084
0.01139191
0.01139298
0.01139033
0.0113886
0.01137809
0.01138985
0.01139042
0.01139094
0.01139269
0.01139883
0.01142778
0.01135242
0.0113789
0.001319532
0.01139014
0.01139071
0.01139145
0.01139324
0.01140059
0.01147098
0.003884956
0.001319148
0.01139042
0.01139072
0.01139129
0.01139205
0.01139372
0.01139551
0.01139373
0.01139219
0.01138938
0.01139057
0.0113907
0.01139102
0.01139145
0.01139199
0.01139238
0.01139228
0.01139153
0.01139133
0.01139067
0.0113907
0.01139093
0.01139117
0.0113914
0.01139163
0.01139144
0.01139136
0.01139119
0.0113908
0.0113907
0.01139087
0.01139102
0.01139115
0.01139126
0.01139123
0.01139118
0.01139111
0.01139091
0.01139073
0.01139086
0.01139097
0.01139105
0.01139112
0.01139112
0.01139111
0.01139107
0.01139103
0.01139076
0.01139088
0.01139095
0.01139102
0.01139106
0.01139107
0.01139108
0.01139106
0.01139113
0.01139082
0.01139092
0.01139098
0.01139103
0.01139106
0.01139108
0.01139108
0.01139107
0.01139115
0.01139089
0.01139096
0.01139102
0.01139106
0.01139109
0.0113911
0.01139111
0.0113911
0.01139122
0.01139095
0.01139103
0.01139108
0.01139111
0.01139114
0.01139115
0.01139116
0.01139115
0.01139133
0.01139103
0.01139111
0.01139115
0.01139119
0.01139121
0.01139122
0.01139122
0.01139121
0.01139142
0.01139112
0.0113912
0.01139124
0.01139127
0.01139129
0.0113913
0.0113913
0.01139129
0.01139153
0.01139122
0.01139131
0.01139135
0.01139138
0.0113914
0.0113914
0.0113914
0.01139138
0.01139164
0.01139134
0.01139143
0.01139148
0.01139151
0.01139152
0.01139152
0.01139151
0.01139148
0.01139177
0.01139148
0.01139158
0.01139162
0.01139166
0.01139166
0.01139166
0.01139164
0.01139161
0.01139192
0.01139164
0.01139175
0.0113918
0.01139183
0.01139184
0.01139183
0.01139179
0.01139174
0.01139208
0.01139184
0.01139195
0.01139201
0.01139204
0.01139204
0.01139202
0.01139198
0.01139191
0.01139228
0.01139208
0.0113922
0.01139226
0.01139229
0.01139229
0.01139226
0.01139219
0.0113921
0.002059635
0.0009757851
0.0009906075
0.0009958035
0.0009964222
0.0009958841
0.0009952423
0.0009961038
0.01139033
0.0113889
0.01138672
0.01138677
0.01138674
0.01138654
0.01138625
0.01138604
0.0113859
0.0113891
0.01138907
0.01138919
0.01138921
0.01138924
0.01138899
0.01138852
0.0113882
0.01138802
0.01138935
0.01138943
0.01138958
0.01138977
0.01139004
0.0113896
0.01138891
0.01138825
0.01138801
0.01138968
0.01138991
0.01139022
0.01139085
0.0113919
0.01139301
0.01139034
0.0113886
0.01137821
0.01139008
0.01139046
0.01139096
0.01139271
0.01139888
0.01142789
0.01135298
0.0113794
0.001255857
0.01139034
0.01139077
0.01139148
0.01139326
0.01140055
0.0114714
0.003818811
0.001250917
0.01139059
0.01139078
0.01139129
0.01139206
0.01139372
0.01139543
0.01139379
0.01139203
0.01138933
0.01139061
0.01139075
0.01139105
0.01139148
0.01139198
0.01139239
0.01139222
0.01139154
0.01139134
0.01139085
0.01139075
0.01139097
0.01139117
0.0113914
0.01139161
0.01139143
0.01139134
0.01139117
0.01139091
0.01139075
0.01139089
0.01139103
0.01139115
0.01139126
0.01139122
0.01139117
0.0113911
0.01139103
0.01139079
0.01139089
0.01139097
0.01139105
0.01139112
0.01139111
0.0113911
0.01139107
0.01139119
0.01139083
0.0113909
0.01139096
0.01139102
0.01139106
0.01139107
0.01139108
0.01139106
0.01139118
0.01139085
0.01139093
0.01139098
0.01139103
0.01139106
0.01139107
0.01139108
0.01139107
0.01139127
0.01139091
0.01139099
0.01139102
0.01139106
0.01139109
0.0113911
0.01139111
0.0113911
0.01139141
0.01139101
0.01139106
0.01139108
0.01139111
0.01139114
0.01139115
0.01139116
0.01139115
0.01139144
0.0113911
0.01139114
0.01139115
0.01139119
0.01139121
0.01139122
0.01139122
0.01139121
0.01139154
0.01139119
0.01139123
0.01139125
0.01139127
0.01139129
0.0113913
0.0113913
0.01139129
0.01139165
0.0113913
0.01139133
0.01139135
0.01139138
0.01139139
0.0113914
0.0113914
0.01139138
0.01139177
0.01139142
0.01139146
0.01139148
0.01139151
0.01139152
0.01139152
0.01139151
0.01139148
0.0113919
0.01139156
0.01139161
0.01139162
0.01139165
0.01139166
0.01139166
0.01139164
0.01139161
0.01139207
0.01139173
0.01139178
0.0113918
0.01139183
0.01139184
0.01139183
0.0113918
0.01139174
0.01139225
0.01139193
0.01139198
0.01139201
0.01139204
0.01139204
0.01139202
0.01139198
0.01139191
0.01139246
0.01139217
0.01139222
0.01139226
0.0113923
0.01139229
0.01139227
0.01139221
0.0113921
0.002045184
0.002090029
0.002156782
0.002169155
0.00217356
0.002166235
0.002159186
0.002162225
0.01139017
0.01138678
0.0113868
0.01138682
0.01138678
0.01138658
0.0113863
0.01138607
0.01138593
0.01139055
0.01138702
0.01138715
0.01138722
0.01138722
0.01138696
0.01138642
0.01138615
0.01138599
0.0113909
0.01138738
0.01138759
0.01138716
0.01138553
0.01138511
0.01138541
0.01138541
0.01138564
0.01139148
0.01138788
0.0113882
0.01138521
0.01138425
0.01139299
0.01139031
0.0113886
0.01138517
0.01139206
0.01138849
0.0113889
0.01138522
0.01139892
0.01142798
0.01135296
0.01137892
0.01137655
0.01139275
0.01138893
0.01138937
0.01138626
0.0114005
0.01147305
0.00369059
0.003533018
0.01139373
0.01138893
0.01138929
0.01138806
0.0113916
0.0113933
0.01139173
0.01139003
0.01138947
0.01139078
0.01138867
0.01138903
0.01138941
0.01138992
0.01139032
0.01139013
0.01138939
0.01138927
0.01139422
0.01138877
0.0113889
0.01138914
0.01138935
0.01138957
0.01138916
0.01138918
0.01138909
0.01139436
0.01138877
0.01138887
0.01138899
0.0113891
0.01138921
0.01138915
0.011389
0.01138906
0.01139463
0.01138887
0.01138886
0.01138894
0.011389
0.01138907
0.01138902
0.01138896
0.01138894
0.01139592
0.01138879
0.01138891
0.01138892
0.01138897
0.01138901
0.01138902
0.01138894
0.01138895
0.01139108
0.01138875
0.01138896
0.01138894
0.01138898
0.01138901
0.01138902
0.01138895
0.01138894
0.01139119
0.01138895
0.01138896
0.011389
0.01138901
0.01138904
0.01138905
0.01138897
0.01138898
0.01139576
0.01138905
0.01138904
0.01138906
0.01138907
0.01138909
0.01138909
0.01138902
0.01138902
0.01139578
0.0113891
0.01138914
0.01138912
0.01138915
0.01138916
0.01138916
0.01138909
0.01138908
0.01139576
0.01138919
0.01138922
0.01138921
0.01138923
0.01138924
0.01138925
0.01138917
0.01138916
0.01139604
0.01138932
0.01138932
0.01138932
0.01138934
0.01138935
0.01138935
0.01138926
0.01138925
0.0113962
0.01138945
0.01138945
0.01138945
0.01138947
0.01138947
0.01138947
0.01138937
0.01138936
0.01139651
0.0113896
0.01138959
0.0113896
0.01138962
0.01138962
0.0113896
0.01138948
0.01138947
0.01139682
0.01138977
0.01138978
0.01138978
0.0113898
0.01138979
0.01138977
0.01138964
0.01138966
0.01139721
0.01138996
0.01138999
0.01138999
0.01139001
0.01138994
0.01138988
0.01138965
0.01138981
0.0113977
0.01139023
0.01139025
0.01139027
0.01139026
0.01139024
0.01139019
0.01138999
0.01139005
0.004555566
0.004630312
0.004621221
0.002076053
0.002067061
0.004527614
0.004533671
0.004591753
0.01139383
0.000937782
0.0009585687
0.0009657793
0.0009673876
0.0009668746
0.000965774
0.0009649155
0.0009656388
0.01139439
0.0009584267
0.0009978107
0.001007243
0.001005994
0.001003357
0.001001677
0.001001432
0.001001121
0.01139501
0.0009654867
0.001007459
0.001014365
0.0009958976
0.000994158
0.0009823857
0.0009916778
0.0009844385
0.0113967
0.0009678068
0.001006941
0.0009967707
0.0009873908
0.01137645
0.0113803
0.01137929
0.0009581054
0.01138713
0.0009683896
0.001006514
0.0009978707
0.0113748
0.01140843
0.01135585
0.01137631
0.01137232
0.01139853
0.0009681999
0.001007383
0.0009998707
0.01138281
0.01147472
0.01140209
0.0009691702
0.00101025
0.001003398
0.0009986756
0.0009749462
0.000961482
0.0009578206
0.0009576313
0.01138417
0.0009720555
0.00101537
0.00102731
0.001026778
0.001022366
0.00101833
0.001016748
0.001016093
0.01138499
0.0009719464
0.001018676
0.001034874
0.001038421
0.001038465
0.001037647
0.001036901
0.001036353
0.01140202
0.0009720937
0.001019613
0.001037137
0.001042066
0.001043361
0.001043473
0.001043167
0.00104277
0.01140234
0.000971857
0.001020104
0.001038008
0.001043377
0.001045075
0.001045484
0.001045351
0.001045026
0.01140579
0.000973144
0.001020747
0.001038509
0.001043967
0.001045787
0.001046303
0.001046249
0.001045964
0.01137965
0.0009761812
0.001021404
0.001038839
0.001044272
0.001046122
0.001046675
0.001046645
0.001046376
0.01137943
0.0009764263
0.001021541
0.001038976
0.001044431
0.001046295
0.00104686
0.001046838
0.001046572
0.0113818
0.0009735916
0.001021158
0.001038959
0.001044504
0.00104639
0.001046964
0.001046944
0.001046675
0.01140597
0.0009716209
0.001020708
0.001038904
0.001044547
0.001046457
0.001047035
0.001047014
0.001046743
0.01137795
0.0009712073
0.001020572
0.001038904
0.001044595
0.001046515
0.001047096
0.00104707
0.001046795
0.01140609
0.0009716795
0.001020692
0.001038977
0.001044656
0.00104657
0.001047148
0.001047117
0.001046838
0.01137568
0.0009718694
0.001020782
0.001039043
0.001044713
0.001046621
0.001047188
0.001047154
0.001046872
0.01140703
0.0009723127
0.001020866
0.0010391
0.001044741
0.001046625
0.001047188
0.001047157
0.001046885
0.01140646
0.0009723912
0.001020948
0.001039092
0.001044651
0.001046503
0.001047064
0.001047073
0.001046841
0.01141016
0.0009723022
0.001020919
0.001038832
0.001044193
0.001045924
0.001046538
0.001046705
0.001046639
0.01140742
0.000972221
0.001020337
0.00103749
0.001042146
0.001043567
0.00104438
0.001045204
0.001045855
0.00486399
0.001938861
0.004628552
0.01139464
0.01138536
0.004506851
0.001980293
0.002050592
0.002051565
0.002103326
0.01135907
0.01137259
0.004502431
0.002070196
0.002079985
0.002073633
0.002122359
0.01134063
0.01135957
0.004498094
0.00208244
0.002083004
0.002133873
0.002140087
0.01134121
0.01135107
0.004493275
0.002083211
0.002082526
0.002140933
0.002140988
0.01133525
0.01134858
0.004488478
0.002082447
0.002081707
0.002140678
0.002140061
0.01133839
0.01134901
0.004484616
0.002081573
0.002081069
0.002139692
0.002139135
0.01134704
0.01135473
0.004481832
0.002080956
0.002080612
0.002138805
0.00213833
0.01135474
0.01135969
0.004479937
0.002080486
0.002080157
0.002138084
0.002137759
0.01136117
0.01136404
0.001926004
0.001975598
0.01139353
0.01120185
0.01139449
0.01120066
0.001987354
0.001993782
0.01139395
0.0111876
0.01139493
0.01118738
0.001995538
0.001996261
0.01139469
0.01116399
0.01139601
0.01116326
0.001997167
0.001997269
0.01139577
0.0111311
0.01139744
0.01113051
0.001998321
0.001998378
0.01139712
0.01108753
0.01139897
0.01108713
0.004308512
0.004336349
0.01140843
0.01144854
0.01148639
0.001991272
0.01135568
0.01136312
0.002007333
0.01136798
0.01137188
0.002016256
0.01137252
0.01137479
0.001999619
0.001999727
0.01139854
0.01103722
0.01140022
0.0110364
0.002086398
0.002022983
0.01147454
0.01106998
0.01117211
0.001970887
0.001951218
0.01118643
0.01132444
0.00195061
0.00195061
0.01128377
0.01134414
0.001950232
0.001949845
0.01129904
0.01134509
0.002000884
0.002001048
0.01139966
0.01099137
0.01140121
0.01099006
0.002001976
0.002002133
0.01140053
0.01095408
0.01140207
0.01095281
0.002002886
0.002003017
0.01140128
0.01092264
0.01140275
0.01092231
0.002003589
0.002003692
0.01140188
0.01089815
0.01140332
0.01089792
0.002004168
0.002004246
0.01140239
0.01087739
0.0114038
0.01087742
0.002004649
0.002004716
0.01140282
0.01086002
0.01140422
0.01085997
0.002005075
0.002005134
0.0114032
0.01084451
0.0114046
0.01084446
0.002005465
0.002005521
0.01140356
0.01083012
0.01140498
0.01083002
0.002005842
0.002005896
0.0114039
0.01081619
0.01140534
0.01081608
0.002006218
0.002006272
0.01140424
0.01080218
0.01140572
0.01080209
0.002006608
0.002006663
0.01140458
0.01078764
0.01140611
0.01078757
0.002007023
0.00200708
0.01140495
0.01077216
0.01140653
0.01077213
0.002007473
0.002007534
0.01140534
0.01075537
0.01140699
0.01075535
0.002007968
0.002008035
0.01140576
0.01073686
0.0114075
0.01073686
0.002008521
0.002008596
0.01140623
0.01071624
0.01140807
0.01071624
0.002009141
0.002009227
0.01140674
0.01069305
0.0114087
0.01069303
0.002009845
0.002009942
0.01140873
0.01066676
0.01140936
0.01066672
0.004627121
0.01139369
0.01138968
0.004639316
0.01139418
0.01138966
0.01143322
0.01148475
0.01142792
0.0114328
0.0114874
0.01141473
0.01142993
0.0114731
0.01141458
0.01142718
0.004640739
0.01139352
0.01138958
0.004642373
0.01139394
0.01138958
0.01143382
0.01148286
0.01142785
0.01143435
0.01148581
0.01141489
0.01142834
0.01147146
0.01141467
0.01142802
0.004642472
0.0113935
0.01138956
0.004643699
0.01139395
0.01138957
0.0114331
0.01148264
0.01142776
0.01143265
0.01148547
0.01141472
0.01142816
0.01147096
0.01141462
0.01142828
0.004643086
0.0113935
0.01138956
0.004643312
0.01139396
0.01138957
0.0114328
0.0114825
0.01142769
0.0114327
0.01148524
0.0114147
0.0114282
0.01147079
0.01141472
0.01142822
0.004642677
0.0113935
0.01138957
0.004643423
0.01139396
0.01138956
0.01143263
0.01148229
0.01142768
0.01143276
0.01148548
0.01141472
0.01142822
0.01147096
0.0114147
0.01142823
0.004642826
0.01139349
0.01138957
0.004639994
0.01139395
0.01138958
0.01143272
0.01148252
0.01142781
0.01143316
0.01148557
0.01141464
0.01142828
0.01147114
0.01141473
0.01142815
0.004640269
0.01139349
0.01138961
0.004636277
0.01139399
0.01138962
0.01143438
0.01148278
0.0114276
0.01143406
0.0114858
0.0114147
0.01142806
0.0114717
0.01141488
0.01142805
0.004634712
0.01139379
0.01138968
0.004537657
0.01139403
0.0113897
0.01143347
0.01148442
0.01142691
0.011435
0.01148788
0.01141451
0.01142757
0.01147385
0.01141435
0.0114295
0.004736113
0.01139434
0.01138536
0.001907896
0.004657435
0.01135259
0.01137934
0.001919251
0.001974486
0.00457425
0.01134861
0.01137779
0.00199358
0.002005362
0.004539122
0.01134314
0.01137009
0.002005416
0.002030339
0.002067446
0.01134557
0.01135437
0.004856741
0.004504112
0.002054136
0.002067099
0.002074071
0.01134604
0.01135348
0.00450302
0.004846555
0.00206717
0.002052981
0.004595327
0.01135441
0.01136553
0.002030428
0.002011697
0.004523286
0.0113683
0.01137277
0.00201121
0.002029343
0.01120197
0.01139444
0.01120132
0.001919811
0.001974247
0.01118682
0.0113947
0.01118608
0.001989862
0.00200227
0.01116384
0.0113957
0.01116269
0.002000447
0.002009618
0.01112731
0.0113881
0.01113622
0.00203933
0.004338902
0.002065116
0.0110951
0.01138755
0.01109078
0.004337885
0.002072958
0.004310698
0.002066127
0.01144921
0.0114839
0.002033683
0.00429032
0.004336398
0.01137003
0.004273727
0.004273855
0.01137582
0.004308837
0.001992551
0.01137491
0.001962461
0.002004448
0.01103209
0.01140249
0.01103384
0.004314539
0.002042802
0.002014393
0.01106435
0.01116798
0.004355725
0.002086613
0.002023932
0.01129001
0.01135673
0.001955499
0.001961846
0.01130438
0.01134819
0.001970625
0.001950399
0.01098317
0.0113875
0.01100176
0.002014002
0.002028989
0.0109652
0.01138372
0.01095177
0.002050646
0.004285035
0.002067261
0.01093341
0.01140587
0.01091216
0.004337005
0.002069621
0.002046702
0.01089167
0.01140122
0.01088419
0.002026136
0.004059553
0.00203338
0.01086818
0.0114062
0.01087576
0.002024155
0.002013044
0.0108518
0.01138339
0.01087364
0.002034599
0.004321174
0.002067265
0.01084362
0.01138033
0.01084017
0.004356656
0.00208716
0.004374131
0.00209275
0.01083214
0.01137875
0.01082478
0.004374502
0.002093241
0.004372922
0.002089695
0.0108291
0.01140968
0.01080243