/*--------------------------------*- C++ -*----------------------------------*\
  =========                 |
  \\      /  F ield         | OpenFOAM: The Open Source CFD Toolbox
   \\    /   O peration     | Website:  https://openfoam.org
    \\  /    A nd           | Version:  7
     \\/     M anipulation  |
\*---------------------------------------------------------------------------*/
FoamFile
{
    version     2.0;
    format      ascii;
    class       volScalarField;
    location    "0.05";
    object      k;
}
// * * * * * * * * * * * * * * * * * * * * * * * * * * * * * * * * * * * * * //

dimensions      [0 2 -2 0 0 0 0];

internalField   nonuniform List<scalar> 
109978
(
0.003776865
0.003771167
0.003767059
0.003763986
0.003761448
0.00375933
0.003774015
0.003772314
0.003769919
0.003767654
0.003765617
0.003763803
0.003769209
0.003768495
0.003766773
0.003764952
0.003763267
0.003761711
0.003765288
0.003765158
0.003764031
0.003762674
0.003761381
0.003760124
0.003762041
0.00376212
0.003761298
0.003760269
0.003759234
0.003758189
0.003759342
0.003759537
0.003758936
0.003758173
0.003757326
0.003756479
0.003757028
0.003757264
0.003756795
0.003756185
0.003755514
0.00375482
0.003755016
0.003755261
0.003754888
0.003754393
0.00375388
0.003753277
0.00375324
0.003753473
0.003753165
0.003752757
0.003752328
0.003751826
0.003751655
0.003751865
0.003751606
0.003751256
0.003750896
0.003750482
0.003750228
0.003750423
0.003750186
0.00374988
0.003749573
0.003749235
0.003748934
0.003749107
0.003748885
0.003748617
0.00374835
0.003748054
0.003747753
0.003747901
0.00374769
0.003747453
0.003747217
0.003746953
0.003746678
0.003746788
0.003746595
0.003746374
0.003746161
0.003745925
0.003745708
0.003745761
0.003745578
0.003745372
0.003745176
0.003744965
0.003744812
0.003744811
0.003744633
0.003744439
0.003744259
0.003744068
0.003743979
0.003743927
0.003743754
0.00374357
0.003743406
0.003743229
0.003743205
0.003743104
0.003742936
0.003742765
0.003742608
0.003742441
0.003742483
0.003742337
0.003742173
0.003742016
0.003741861
0.003741701
0.00374181
0.00374162
0.003741459
0.003741315
0.00374116
0.003741006
0.003741181
0.00374095
0.003740791
0.003740658
0.003740503
0.003740357
0.003740593
0.003740325
0.003740168
0.003740042
0.003739893
0.00373975
0.003573394
0.003739744
0.003739589
0.003739467
0.003739328
0.003739182
0.003647731
0.003599588
0.003598275
0.003596161
0.00359425
0.003592558
0.003581587
0.003576433
0.003576234
0.003574978
0.003574437
0.003574149
0.0035784
0.003575409
0.003574666
0.003574254
0.003574013
0.00357385
0.003576325
0.003574543
0.003574376
0.003574159
0.003574007
0.003573869
0.003575671
0.003574129
0.003573967
0.00357383
0.003573731
0.003573642
0.003575223
0.003573787
0.003573744
0.00357368
0.003573626
0.003573567
0.003574942
0.00357359
0.003573562
0.003573524
0.00357349
0.003573451
0.003574725
0.003573434
0.003573427
0.003573409
0.003573392
0.003573368
0.003574554
0.00357332
0.00357332
0.003573312
0.003573304
0.003573288
0.003574413
0.003573229
0.003573233
0.003573231
0.003573229
0.003573221
0.003574292
0.003573154
0.003573161
0.003573163
0.003573164
0.00357316
0.003574186
0.003573092
0.003573099
0.003573103
0.003573107
0.003573106
0.003574093
0.003573039
0.003573046
0.003573052
0.003573057
0.003573058
0.00357401
0.003572992
0.003573
0.003573006
0.003573012
0.003573015
0.003573934
0.003572951
0.003572959
0.003572965
0.003572972
0.003572975
0.003573865
0.003572915
0.003572922
0.003572928
0.003572935
0.003572939
0.003573801
0.003572882
0.003572889
0.003572895
0.003572902
0.003572907
0.003573743
0.003572852
0.003572859
0.003572865
0.003572872
0.003572877
0.003573689
0.003572825
0.003572831
0.003572838
0.003572844
0.003572849
0.003573639
0.003572801
0.003572806
0.003572812
0.003572819
0.003572823
0.003573593
0.003572778
0.003572783
0.003572789
0.003572795
0.0035728
0.00357355
0.003572757
0.003572762
0.003572767
0.003572773
0.003572778
0.003573509
0.003572738
0.003572742
0.003572747
0.003572753
0.003572757
0.003573454
0.00357272
0.003572724
0.003572728
0.003572734
0.003572738
0.003659779
0.003595156
0.003595104
0.003593779
0.003592494
0.003591309
0.003579459
0.003575854
0.003576241
0.003574894
0.003574357
0.003574071
0.003578039
0.003575366
0.003574627
0.003574226
0.003573958
0.003573795
0.00357537
0.003574469
0.003574376
0.003574183
0.003574013
0.003573873
0.003575023
0.003574098
0.003573951
0.00357382
0.003573711
0.003573624
0.0035747
0.003573758
0.003573736
0.003573672
0.003573615
0.003573552
0.003574515
0.003573569
0.003573552
0.003573516
0.003573474
0.003573435
0.003574362
0.003573414
0.003573419
0.003573401
0.003573379
0.003573353
0.003574237
0.003573303
0.003573312
0.003573303
0.00357329
0.003573274
0.003574128
0.003573213
0.003573225
0.003573222
0.003573216
0.003573206
0.003574033
0.00357314
0.003573153
0.003573153
0.003573151
0.003573146
0.003573949
0.003573079
0.003573091
0.003573094
0.003573094
0.003573092
0.003573872
0.003573026
0.003573038
0.003573042
0.003573044
0.003573044
0.003573803
0.00357298
0.003572992
0.003572996
0.003572999
0.003573001
0.00357374
0.00357294
0.003572951
0.003572956
0.003572959
0.003572962
0.003573681
0.003572904
0.003572914
0.003572919
0.003572923
0.003572926
0.003573627
0.003572872
0.003572881
0.003572886
0.00357289
0.003572894
0.003573578
0.003572843
0.003572851
0.003572856
0.00357286
0.003572864
0.003573531
0.003572816
0.003572824
0.003572828
0.003572833
0.003572837
0.003573488
0.003572792
0.003572799
0.003572803
0.003572807
0.003572811
0.003573448
0.003572769
0.003572776
0.00357278
0.003572784
0.003572788
0.00357341
0.003572748
0.003572755
0.003572758
0.003572762
0.003572766
0.003573375
0.003572729
0.003572735
0.003572738
0.003572742
0.003572746
0.003573342
0.003572711
0.003572717
0.00357272
0.003572723
0.003572727
0.00366
0.003593213
0.003594431
0.003593533
0.00359207
0.003590809
0.003579211
0.003575662
0.003576363
0.0035749
0.003574361
0.003574067
0.003578083
0.003575369
0.003574622
0.003574205
0.003573932
0.003573766
0.003575409
0.003574448
0.003574342
0.003574153
0.003574002
0.003573858
0.003575052
0.003574082
0.003573938
0.00357381
0.003573704
0.003573618
0.003574715
0.003573743
0.003573722
0.003573672
0.00357361
0.00357355
0.003574525
0.003573563
0.003573548
0.003573512
0.003573472
0.003573432
0.003574367
0.003573409
0.003573414
0.003573399
0.003573378
0.003573352
0.003574239
0.003573298
0.003573308
0.003573302
0.003573289
0.003573273
0.003574129
0.003573208
0.003573221
0.003573221
0.003573216
0.003573206
0.003574033
0.003573135
0.003573149
0.003573152
0.003573151
0.003573146
0.003573947
0.003573074
0.003573088
0.003573093
0.003573094
0.003573092
0.00357387
0.003573021
0.003573035
0.003573041
0.003573044
0.003573044
0.003573801
0.003572976
0.003572989
0.003572996
0.003573
0.003573001
0.003573737
0.003572935
0.003572948
0.003572955
0.00357296
0.003572962
0.003573678
0.003572899
0.003572911
0.003572919
0.003572923
0.003572926
0.003573625
0.003572867
0.003572879
0.003572886
0.003572891
0.003572894
0.003573575
0.003572838
0.003572849
0.003572856
0.003572861
0.003572864
0.003573528
0.003572811
0.003572821
0.003572828
0.003572833
0.003572837
0.003573485
0.003572787
0.003572797
0.003572803
0.003572808
0.003572811
0.003573445
0.003572765
0.003572774
0.00357278
0.003572784
0.003572788
0.003573407
0.003572744
0.003572752
0.003572758
0.003572762
0.003572766
0.003573372
0.003572725
0.003572733
0.003572738
0.003572742
0.003572746
0.00357334
0.003572707
0.003572715
0.00357272
0.003572724
0.003572727
0.003656066
0.003592473
0.003594016
0.003593195
0.003592091
0.003590971
0.003579122
0.003575607
0.003576262
0.003574892
0.003574341
0.003574047
0.003578174
0.00357536
0.003574586
0.003574188
0.003573932
0.003573758
0.003575411
0.003574437
0.003574309
0.003574107
0.003573954
0.003573827
0.003575059
0.003574061
0.003573927
0.003573802
0.003573701
0.003573615
0.003574706
0.003573727
0.003573716
0.003573666
0.003573609
0.003573551
0.003574518
0.003573555
0.003573543
0.003573509
0.003573471
0.003573432
0.003574361
0.003573402
0.003573409
0.003573396
0.003573377
0.003573352
0.003574234
0.003573292
0.003573303
0.003573299
0.003573288
0.003573273
0.003574125
0.003573202
0.003573217
0.003573219
0.003573215
0.003573206
0.003574029
0.00357313
0.003573145
0.00357315
0.00357315
0.003573146
0.003573944
0.003573069
0.003573084
0.003573091
0.003573093
0.003573092
0.003573867
0.003573016
0.003573031
0.003573039
0.003573043
0.003573044
0.003573797
0.003572971
0.003572985
0.003572994
0.003572999
0.003573001
0.003573734
0.003572931
0.003572944
0.003572953
0.003572959
0.003572962
0.003573675
0.003572895
0.003572908
0.003572917
0.003572923
0.003572927
0.003573622
0.003572863
0.003572875
0.003572884
0.00357289
0.003572894
0.003573572
0.003572834
0.003572846
0.003572854
0.00357286
0.003572864
0.003573526
0.003572808
0.003572818
0.003572826
0.003572832
0.003572837
0.003573483
0.003572784
0.003572794
0.003572801
0.003572807
0.003572811
0.003573443
0.003572761
0.003572771
0.003572778
0.003572784
0.003572788
0.003573405
0.003572741
0.00357275
0.003572757
0.003572762
0.003572766
0.00357337
0.003572722
0.00357273
0.003572737
0.003572742
0.003572746
0.003573338
0.003572705
0.003572712
0.003572718
0.003572723
0.003572727
0.003657343
0.003592594
0.003594185
0.003593188
0.003591962
0.003590769
0.003579103
0.003575606
0.003576262
0.003574892
0.003574341
0.003574047
0.003578149
0.003575359
0.003574586
0.003574189
0.003573934
0.003573761
0.00357541
0.003574437
0.003574309
0.003574107
0.003573955
0.003573828
0.003575073
0.003574061
0.003573927
0.003573802
0.003573701
0.003573616
0.003574705
0.003573727
0.003573716
0.003573666
0.003573609
0.003573551
0.003574518
0.003573555
0.003573543
0.003573509
0.003573471
0.003573432
0.003574362
0.003573402
0.003573409
0.003573396
0.003573377
0.003573352
0.003574235
0.003573292
0.003573303
0.003573299
0.003573288
0.003573273
0.003574125
0.003573202
0.003573217
0.003573219
0.003573215
0.003573206
0.003574029
0.00357313
0.003573145
0.00357315
0.00357315
0.003573146
0.003573944
0.003573069
0.003573084
0.003573091
0.003573093
0.003573092
0.003573867
0.003573016
0.003573031
0.003573039
0.003573043
0.003573044
0.003573797
0.003572971
0.003572985
0.003572994
0.003572999
0.003573001
0.003573734
0.003572931
0.003572944
0.003572953
0.003572959
0.003572962
0.003573675
0.003572895
0.003572908
0.003572917
0.003572923
0.003572927
0.003573622
0.003572863
0.003572875
0.003572884
0.00357289
0.003572894
0.003573572
0.003572834
0.003572845
0.003572854
0.00357286
0.003572864
0.003573526
0.003572808
0.003572818
0.003572826
0.003572832
0.003572837
0.003573483
0.003572784
0.003572794
0.003572801
0.003572807
0.003572811
0.003573443
0.003572761
0.003572771
0.003572778
0.003572784
0.003572788
0.003573405
0.003572741
0.00357275
0.003572757
0.003572762
0.003572766
0.00357337
0.003572722
0.00357273
0.003572737
0.003572742
0.003572746
0.003573338
0.003572705
0.003572712
0.003572718
0.003572723
0.003572727
0.00365982
0.003592659
0.003593988
0.003593221
0.003592114
0.003590984
0.003579179
0.00357566
0.00357636
0.003574897
0.003574357
0.003574063
0.00357806
0.003575369
0.003574623
0.003574208
0.003573937
0.003573772
0.003575417
0.003574446
0.003574341
0.003574153
0.003574002
0.003573858
0.003575071
0.003574081
0.003573937
0.00357381
0.003573705
0.003573619
0.003574711
0.003573742
0.00357372
0.003573671
0.00357361
0.00357355
0.003574523
0.003573562
0.003573546
0.003573511
0.003573472
0.003573432
0.003574365
0.003573408
0.003573413
0.003573398
0.003573377
0.003573352
0.003574238
0.003573297
0.003573306
0.0035733
0.003573289
0.003573273
0.003574128
0.003573207
0.00357322
0.00357322
0.003573215
0.003573206
0.003574032
0.003573134
0.003573148
0.003573151
0.00357315
0.003573145
0.003573946
0.003573073
0.003573087
0.003573092
0.003573094
0.003573092
0.003573869
0.00357302
0.003573034
0.00357304
0.003573044
0.003573044
0.0035738
0.003572975
0.003572988
0.003572995
0.003572999
0.003573001
0.003573736
0.003572934
0.003572947
0.003572954
0.003572959
0.003572962
0.003573678
0.003572898
0.00357291
0.003572918
0.003572923
0.003572926
0.003573624
0.003572866
0.003572878
0.003572885
0.00357289
0.003572894
0.003573574
0.003572837
0.003572848
0.003572855
0.00357286
0.003572864
0.003573528
0.003572811
0.003572821
0.003572827
0.003572833
0.003572837
0.003573485
0.003572786
0.003572796
0.003572802
0.003572807
0.003572811
0.003573444
0.003572764
0.003572773
0.003572779
0.003572784
0.003572788
0.003573407
0.003572743
0.003572752
0.003572757
0.003572762
0.003572766
0.003573372
0.003572724
0.003572732
0.003572737
0.003572742
0.003572746
0.003573339
0.003572707
0.003572714
0.003572719
0.003572723
0.003572727
0.003657714
0.003593346
0.003594243
0.003593418
0.003592286
0.003591086
0.003579374
0.003575851
0.003576235
0.003574888
0.003574352
0.003574065
0.0035779
0.003575365
0.00357463
0.003574233
0.003573967
0.003573804
0.003575414
0.003574466
0.003574374
0.003574182
0.003574013
0.003573874
0.003575081
0.003574095
0.003573948
0.003573819
0.003573712
0.003573626
0.003574709
0.003573755
0.003573732
0.003573671
0.003573615
0.003573552
0.003574522
0.003573566
0.00357355
0.003573514
0.003573474
0.003573435
0.003574365
0.003573412
0.003573416
0.003573399
0.003573378
0.003573353
0.003574237
0.0035733
0.003573309
0.003573301
0.003573289
0.003573273
0.003574127
0.003573211
0.003573222
0.00357322
0.003573215
0.003573206
0.003574031
0.003573138
0.00357315
0.003573151
0.00357315
0.003573146
0.003573946
0.003573076
0.003573089
0.003573092
0.003573093
0.003573092
0.003573869
0.003573024
0.003573036
0.00357304
0.003573043
0.003573044
0.0035738
0.003572978
0.00357299
0.003572995
0.003572999
0.003573001
0.003573736
0.003572938
0.003572949
0.003572954
0.003572959
0.003572962
0.003573678
0.003572902
0.003572912
0.003572918
0.003572923
0.003572926
0.003573624
0.00357287
0.003572879
0.003572885
0.00357289
0.003572894
0.003573574
0.003572841
0.003572849
0.003572855
0.00357286
0.003572864
0.003573527
0.003572814
0.003572822
0.003572827
0.003572832
0.003572837
0.003573484
0.00357279
0.003572797
0.003572802
0.003572807
0.003572811
0.003573444
0.003572767
0.003572774
0.003572779
0.003572783
0.003572788
0.003573407
0.003572747
0.003572753
0.003572757
0.003572762
0.003572766
0.003573372
0.003572728
0.003572733
0.003572737
0.003572742
0.003572746
0.003573339
0.00357271
0.003572715
0.003572719
0.003572723
0.003572727
0.003646283
0.003595532
0.003596539
0.003595208
0.003593654
0.003592225
0.003579811
0.003576423
0.003576225
0.003574972
0.00357443
0.003574142
0.003577492
0.003575406
0.003574666
0.003574253
0.003574013
0.00357385
0.003575591
0.003574534
0.003574371
0.003574156
0.003574005
0.003573868
0.003575208
0.003574122
0.003573964
0.00357383
0.003573731
0.003573642
0.003574815
0.00357378
0.00357374
0.003573678
0.003573625
0.003573566
0.003574616
0.003573583
0.003573558
0.003573522
0.003573489
0.003573451
0.003574445
0.003573427
0.003573423
0.003573408
0.003573392
0.003573367
0.003574308
0.003573314
0.003573316
0.00357331
0.003573303
0.003573288
0.003574191
0.003573223
0.003573229
0.00357323
0.003573229
0.00357322
0.00357409
0.003573149
0.003573157
0.003573161
0.003573163
0.00357316
0.003574
0.003573086
0.003573096
0.003573102
0.003573107
0.003573106
0.003573919
0.003573033
0.003573043
0.00357305
0.003573056
0.003573058
0.003573847
0.003572987
0.003572997
0.003573005
0.003573011
0.003573014
0.00357378
0.003572946
0.003572956
0.003572964
0.003572971
0.003572975
0.003573719
0.00357291
0.003572919
0.003572927
0.003572935
0.003572939
0.003573663
0.003572878
0.003572886
0.003572894
0.003572902
0.003572906
0.003573612
0.003572848
0.003572856
0.003572864
0.003572871
0.003572876
0.003573564
0.003572821
0.003572829
0.003572836
0.003572844
0.003572849
0.003573519
0.003572797
0.003572804
0.003572811
0.003572818
0.003572823
0.003573478
0.003572774
0.003572781
0.003572788
0.003572794
0.003572799
0.003573439
0.003572753
0.003572759
0.003572766
0.003572772
0.003572777
0.003573403
0.003572734
0.00357274
0.003572746
0.003572752
0.003572757
0.003573455
0.003572716
0.003572721
0.003572728
0.003572733
0.003572738
0.004462647
0.004136689
0.004036795
0.003969404
0.003920108
0.003881456
0.003590696
0.003580551
0.003578708
0.003577564
0.003577098
0.003576852
0.003576711
0.003585487
0.003579301
0.003577623
0.003576875
0.003576476
0.003576215
0.003576026
0.003582291
0.003576597
0.003576365
0.003575943
0.003575698
0.003575524
0.003575398
0.00358122
0.003575989
0.003575825
0.003575592
0.003575437
0.003575318
0.003575222
0.003580338
0.003575291
0.003575354
0.00357523
0.003575149
0.003575078
0.003575022
0.003579732
0.003574968
0.003575042
0.003574971
0.00357493
0.003574891
0.003574858
0.003579231
0.003574686
0.003574791
0.003574752
0.003574737
0.003574721
0.003574706
0.00357882
0.003574487
0.003574595
0.003574574
0.003574574
0.003574572
0.00357457
0.003578467
0.003574324
0.003574432
0.003574422
0.003574431
0.003574439
0.003574447
0.003578161
0.003574191
0.003574294
0.003574291
0.003574306
0.00357432
0.003574336
0.003577889
0.003574077
0.003574177
0.003574178
0.003574196
0.003574213
0.003574234
0.003577647
0.00357398
0.003574075
0.003574078
0.003574098
0.003574117
0.00357414
0.003577426
0.003573894
0.003573984
0.003573989
0.003574009
0.00357403
0.003574055
0.003577227
0.003573817
0.003573903
0.003573909
0.003573929
0.00357395
0.003573977
0.003577043
0.003573749
0.00357383
0.003573837
0.003573856
0.003573878
0.003573905
0.003576874
0.003573687
0.003573762
0.003573772
0.00357379
0.003573811
0.003573838
0.003576717
0.003573631
0.0035737
0.003573712
0.003573729
0.003573749
0.003573777
0.003576571
0.003573579
0.003573643
0.003573656
0.003573672
0.003573692
0.00357372
0.003576436
0.003573532
0.003573591
0.003573603
0.003573621
0.00357364
0.003573666
0.003576309
0.003573487
0.003573542
0.003573555
0.003573573
0.00357359
0.003573617
0.003576191
0.003573447
0.003573497
0.003573509
0.003573528
0.003573545
0.00357357
0.00357608
0.003573409
0.003573455
0.003573467
0.003573486
0.003573502
0.003573527
0.003575962
0.003739913
0.003573416
0.003573428
0.003573447
0.003573463
0.003573487
0.00383995
0.004585841
0.003599255
0.003592694
0.003833019
0.003831714
0.004462743
0.004167698
0.003588994
0.003583014
0.003823646
0.003821109
0.004136718
0.004040342
0.003581983
0.00358108
0.003811345
0.003812833
0.004036799
0.003966408
0.003580441
0.003579598
0.003803187
0.003806194
0.003969416
0.003913757
0.003579578
0.003578548
0.003796755
0.003800751
0.003920113
0.003872251
0.003579018
0.00357797
0.00379136
0.003881452
0.00357857
0.003816457
0.003816238
0.003590285
0.003582592
0.003585521
0.003581915
0.003805914
0.003804041
0.003584902
0.003579356
0.003582153
0.003577547
0.003795464
0.00379451
0.003581766
0.003576576
0.00358083
0.003576324
0.003786885
0.003786449
0.003580729
0.003575795
0.003579989
0.003575526
0.003780013
0.00377992
0.003579858
0.003575183
0.003579405
0.003575094
0.003774235
0.003774347
0.003579276
0.00357485
0.003578943
0.003574777
0.00376931
0.00376955
0.003578795
0.003574592
0.003578563
0.003574547
0.003765014
0.003765332
0.003578404
0.003574401
0.00357824
0.003574365
0.003761215
0.003761584
0.003578069
0.003574247
0.003577958
0.003574217
0.003757815
0.00375822
0.003577778
0.003574119
0.003577707
0.003574092
0.003754746
0.003755173
0.003577521
0.003574009
0.00357748
0.003573986
0.003751954
0.003752395
0.003577292
0.003573914
0.003577275
0.003573892
0.003749399
0.003749848
0.003577086
0.00357383
0.003577086
0.00357381
0.003747048
0.003747498
0.003576897
0.003573755
0.003576913
0.003573736
0.003744875
0.00374532
0.003576724
0.003573687
0.003576752
0.003573669
0.00374286
0.003743296
0.003576564
0.003573625
0.003576603
0.003573608
0.003740988
0.003741414
0.003576417
0.003573569
0.003576464
0.003573553
0.003739243
0.003739659
0.00357628
0.003573517
0.003576334
0.003573502
0.003737615
0.003738021
0.003576152
0.003573469
0.003576213
0.003573455
0.003736094
0.003736489
0.003576034
0.003573425
0.003576099
0.003573411
0.00373467
0.003735054
0.003575923
0.003573384
0.003575993
0.003573371
0.003733336
0.003733709
0.003575819
0.003573346
0.003575893
0.003573334
0.003732117
0.003575165
0.003575956
0.00357331
0.003575576
0.003573022
0.004689942
0.003592751
0.003590595
0.00480327
0.003590295
0.003590849
0.004772301
0.003590129
0.003593584
0.004779399
0.003590194
0.003593852
0.004793292
0.003590197
0.003594154
0.00475989
0.003590477
0.003594039
0.00482193
0.00359021
0.003593913
0.004810619
0.003590721
0.003593961
0.004755755
0.003590186
0.003593942
0.004818685
0.003590688
0.003593965
0.004766444
0.003590025
0.003594139
0.004797362
0.0035907
0.003594135
0.00477854
0.003589788
0.003593855
0.004770274
0.00359076
0.003593573
0.004803703
0.003589716
0.003590873
0.004688848
0.003593097
0.003590595
0.004589831
0.003598726
0.003592691
0.003839953
0.004170149
0.003588992
0.003583014
0.003833016
0.003831717
0.004042026
0.003581982
0.00358108
0.003823644
0.00382111
0.003967579
0.00358044
0.003579598
0.003811344
0.003812832
0.003914638
0.003579579
0.003578547
0.003803184
0.003806195
0.003872891
0.003579017
0.003577973
0.003796753
0.003800748
0.003575242
0.003579986
0.003575523
0.00378675
0.003786447
0.003574349
0.00357894
0.003574776
0.003774163
0.003774343
0.003574088
0.00357856
0.003574545
0.00376927
0.003769544
0.003573922
0.003578236
0.003574364
0.003764985
0.003765328
0.00357379
0.003577954
0.003574216
0.003761197
0.003761583
0.003573682
0.003577703
0.003574092
0.003757807
0.003758216
0.003573457
0.003577083
0.003573809
0.003749405
0.003749845
0.003573382
0.003576909
0.003573735
0.003747059
0.003747496
0.003573327
0.003576748
0.003573669
0.003744891
0.003745317
0.003573278
0.003576599
0.003573608
0.003742879
0.003743293
0.003573201
0.00357633
0.003573501
0.003739268
0.003739657
0.003573153
0.003576209
0.003573454
0.00373764
0.003738019
0.003573094
0.003575989
0.003573371
0.003734704
0.003735055
0.003573056
0.003575889
0.003573333
0.00373337
0.003733712
0.00357331
0.00357556
0.003573299
0.003732125
0.003575131
0.003763358
0.004023818
0.003662123
0.003975709
0.003666222
0.003962222
0.003639274
0.003933249
0.003639943
0.003929208
0.003627306
0.003905307
0.003627706
0.003906116
0.003619649
0.003885486
0.003619338
0.003888373
0.003614045
0.003869877
0.003613398
0.00387431
0.003609645
0.003857081
0.003608834
0.003862755
0.003590121
0.003936177
0.003599941
0.003929441
0.003582489
0.003900333
0.003585681
0.003897454
0.003579975
0.003874744
0.003581335
0.003873753
0.003578859
0.003855174
0.003579847
0.003854889
0.003578098
0.003839487
0.003578707
0.003839613
0.003577567
0.00382633
0.003578001
0.00382666
0.00357715
0.003815054
0.00357747
0.003815464
0.003576813
0.003805264
0.003577064
0.003805685
0.003576528
0.003796613
0.003576732
0.003797013
0.003576284
0.003788874
0.003576454
0.003789241
0.00357607
0.003781882
0.003576215
0.003782214
0.003575881
0.003775511
0.003576005
0.003775812
0.003575711
0.003769669
0.00357582
0.003769943
0.003575557
0.003764291
0.003575653
0.003764532
0.003575417
0.003759322
0.003575503
0.003759524
0.003575289
0.003754711
0.003575366
0.003754875
0.003575172
0.003750419
0.003575241
0.003750548
0.003575063
0.003746414
0.003575126
0.00374651
0.003574962
0.00374267
0.003575019
0.003742734
0.003574869
0.003739163
0.003574919
0.003739204
0.003574781
0.003735879
0.003574826
0.003735903
0.0035747
0.003732803
0.00357474
0.003732807
0.003574622
0.003729915
0.003574658
0.003729892
0.00377619
0.003774135
0.003768486
0.003764545
0.003769787
0.003765205
0.003769399
0.003768658
0.003767276
0.003769207
0.003766988
0.003768997
0.003765942
0.00377124
0.003768669
0.003771279
0.003754509
0.003774596
0.003578541
0.003791359
0.003581834
0.003585514
0.003581908
0.003816236
0.003816226
0.003578664
0.003582145
0.00357754
0.00380573
0.003804031
0.003575927
0.003580828
0.00357632
0.003795329
0.003794508
0.003574618
0.003579403
0.003575092
0.003779939
0.003779919
0.003573591
0.003577477
0.003573985
0.003754743
0.003755173
0.003573512
0.003577271
0.003573891
0.003751959
0.003752391
0.003573233
0.00357646
0.003573552
0.003741009
0.003741412
0.003573118
0.003576096
0.00357341
0.003736121
0.00373649
0.003691184
0.003994004
0.003685804
0.004004129
0.003610018
0.003960189
0.00360767
0.00395851
0.003753897
0.003775699
0.003648604
0.003950046
0.003651901
0.003951598
0.00363275
0.003921702
0.003638197
0.003918956
0.003622891
0.003901551
0.003628487
0.003896216
0.003616255
0.003885708
0.003621331
0.003878469
0.003611187
0.0038728
0.003615811
0.003864245
0.003586488
0.003915994
0.003585971
0.003919709
0.003581675
0.003887199
0.003581339
0.003888724
0.003579666
0.003865798
0.003579671
0.003866359
0.003578641
0.003848492
0.00357862
0.00384856
0.003577952
0.003834309
0.003577927
0.003834086
0.003577452
0.003822095
0.003577413
0.003821702
0.003577065
0.003811539
0.003577013
0.003811058
0.003576744
0.003802243
0.003576689
0.003801734
0.003576472
0.003793961
0.003576416
0.00379345
0.003576238
0.003786507
0.003576181
0.003786011
0.003576032
0.003779739
0.003575976
0.003779263
0.003575848
0.003773551
0.003575791
0.003773105
0.003575683
0.003767864
0.003575627
0.003767458
0.003575534
0.003762614
0.003575477
0.003762246
0.003575398
0.003757749
0.003575341
0.003757421
0.003575272
0.003753226
0.003575215
0.003752939
0.003575157
0.003749012
0.0035751
0.003748762
0.003575049
0.003745076
0.003574994
0.00374486
0.00357495
0.003741396
0.003574895
0.003741209
0.003574856
0.003737957
0.003574804
0.003737792
0.00357477
0.003734739
0.003574719
0.003734596
0.003574688
0.003731715
0.00357464
0.003731595
0.003574609
0.003579214
0.003728773
0.00357409
0.00376897
0.003771836
0.003767381
0.003771558
0.003768234
0.003770293
0.003769055
0.003770654
0.003769644
0.003767952
0.003771635
0.003767504
0.003770152
0.003765201
0.00377491
0.003773373
0.003764582
0.004023817
0.0036488
0.003947096
0.003652485
0.003951559
0.003639266
0.003933281
0.003639876
0.003929205
0.003578852
0.003855173
0.003579845
0.003854887
0.003577561
0.003826333
0.003577999
0.003826659
0.003577452
0.003822087
0.003577416
0.003821702
0.003577145
0.003815094
0.003577435
0.003815463
0.003576254
0.003786503
0.003576184
0.003785996
0.003575707
0.003769667
0.003575818
0.003769942
0.003575683
0.003767862
0.00357563
0.003767457
0.003575554
0.003764296
0.003575636
0.003764531
0.003575534
0.003762612
0.00357548
0.003762245
0.003575415
0.003759326
0.003575487
0.003759523
0.003575397
0.003757748
0.003575344
0.00375742
0.003575287
0.003754713
0.003575351
0.003754876
0.003575272
0.003753227
0.003575218
0.003752937
0.003575061
0.003746415
0.003575125
0.003746511
0.003575049
0.003745078
0.003574997
0.00374486
0.00357496
0.00374267
0.003575006
0.003742736
0.003574949
0.0037414
0.003574898
0.003741209
0.00357478
0.003735898
0.003574826
0.003735906
0.00357477
0.003734749
0.003574723
0.003734602
0.003574699
0.003732809
0.003574729
0.003732817
0.003574688
0.003731733
0.003574643
0.003731607
0.003574622
0.003729929
0.003574649
0.003729909
0.00357461
0.003606247
0.003728794
0.003574084
0.00517388
0.003949755
0.004762964
0.003829088
0.004871264
0.003826172
0.004413475
0.003809898
0.004515892
0.003808397
0.004247297
0.003799024
0.004335484
0.003798295
0.004138953
0.003791486
0.004218049
0.00379131
0.004061325
0.003785758
0.004133483
0.003785992
0.004002796
0.003781169
0.004067906
0.003781748
0.005323178
0.005349028
0.00537169
0.005390031
0.005390233
0.005395706
0.005368561
0.005395669
0.005361077
0.005396375
0.005391974
0.005372084
0.005357182
0.005358791
0.005319697
0.005304216
0.005221467
0.00525988
0.00517037
0.003837313
0.005213497
0.003839277
0.005255457
0.00526488
0.004606418
0.00381552
0.004730466
0.003814491
0.004370635
0.003803944
0.004485952
0.003802002
0.004230814
0.0037961
0.004335078
0.00379362
0.004133884
0.003790181
0.004227798
0.003787339
0.004061001
0.003785466
0.004145602
0.003782366
0.005334849
0.005361215
0.005361898
0.005323663
0.005352661
0.005364356
0.005396683
0.005383697
0.005400476
0.005363907
0.005417658
0.005411073
0.005375581
0.00537983
0.005314015
0.005341426
0.005182236
0.003949577
0.003691074
0.003990011
0.003686051
0.004004097
0.003610152
0.003960147
0.00360764
0.003958515
0.003661753
0.003975792
0.003666027
0.003965582
0.00441353
0.003809894
0.003808397
0.004515925
0.003632763
0.003919355
0.00363883
0.003918945
0.003627271
0.003905296
0.003627618
0.003906096
0.003622957
0.003899664
0.003629216
0.003896188
0.003619659
0.003885509
0.003619325
0.003888377
0.003614016
0.003869862
0.003613368
0.003874309
0.003611248
0.003871463
0.003616611
0.003864232
0.003578642
0.003848476
0.003578625
0.00384856
0.00358385
0.003821808
0.003584624
0.003821349
0.003583815
0.003818106
0.003817337
0.003583098
0.003577064
0.003811534
0.003577014
0.003811057
0.003576807
0.003805293
0.003577033
0.003805685
0.003576744
0.003802237
0.003576692
0.003801733
0.003576525
0.003796636
0.003576704
0.003797018
0.003576473
0.003793957
0.003576421
0.003793461
0.003576276
0.003788901
0.00357643
0.003789242
0.003581142
0.003786262
0.003581512
0.003785968
0.003579217
0.003758094
0.003579422
0.003757852
0.003579243
0.003756696
0.003756243
0.003578885
0.003577498
0.003730066
0.003729874
0.003577575
0.005584313
0.003865082
0.00545052
0.003871055
0.003717453
0.004030084
0.003640464
0.0040298
0.005115364
0.005187194
0.004787161
0.003822623
0.00486403
0.003823053
0.004446536
0.0038074
0.004534135
0.003806748
0.004274683
0.003798159
0.004354536
0.003796702
0.004161048
0.003791545
0.004235191
0.003789609
0.004079417
0.003786393
0.004147911
0.003784112
0.004017182
0.003782232
0.004080196
0.0037797
0.005332214
0.005338868
0.005346981
0.005371547
0.005341935
0.005363324
0.00539987
0.005399294
0.005382462
0.005375501
0.005377889
0.005414699
0.005402819
0.005369977
0.005354896
0.005372147
0.005321343
0.00527765
0.003857091
0.003609518
0.003609553
0.003936721
0.003599753
0.003929497
0.003589934
0.00391599
0.003919757
0.003586485
0.00358597
0.003900619
0.003897491
0.003582475
0.003585559
0.003887172
0.003888757
0.003581673
0.003581343
0.003874911
0.003873776
0.003579965
0.003581256
0.003865783
0.00357973
0.00386638
0.003579663
0.003839559
0.003578661
0.003839635
0.003578051
0.0038343