/*--------------------------------*- C++ -*----------------------------------*\
  =========                 |
  \\      /  F ield         | OpenFOAM: The Open Source CFD Toolbox
   \\    /   O peration     | Website:  https://openfoam.org
    \\  /    A nd           | Version:  7
     \\/     M anipulation  |
\*---------------------------------------------------------------------------*/
FoamFile
{
    version     2.0;
    format      ascii;
    class       volScalarField;
    location    "0.05";
    object      nut;
}
// * * * * * * * * * * * * * * * * * * * * * * * * * * * * * * * * * * * * * //

dimensions      [0 2 -1 0 0 0 0];

internalField   nonuniform List<scalar> 
109978
(
0.0006598767
0.0006413508
0.0006394217
0.0006389659
0.0006387436
0.0006387361
0.0006416521
0.0006093742
0.0006061015
0.0006055305
0.0006053693
0.0006054726
0.0006396526
0.0006059685
0.0006023432
0.0006017109
0.0006015755
0.0006017542
0.0006391061
0.0006052789
0.0006015994
0.0006009642
0.0006008569
0.0006010814
0.0006387639
0.0006049245
0.0006012393
0.000600613
0.0006005231
0.0006007717
0.0006384988
0.0006046687
0.0006009936
0.0006003833
0.0006003057
0.0006005732
0.0006382756
0.0006044572
0.0006007886
0.0006001877
0.0006001246
0.0006004063
0.0006380831
0.0006042736
0.0006006132
0.0006000218
0.0005999713
0.0006002611
0.0006379135
0.0006041114
0.0006004569
0.0005998726
0.0005998292
0.000600128
0.0006377624
0.000603966
0.0006003165
0.0005997371
0.0005996997
0.0006000062
0.0006376263
0.0006038359
0.0006001888
0.0005996135
0.0005995802
0.0005998939
0.000637503
0.0006037171
0.0006000721
0.0005995002
0.0005994705
0.0005997878
0.0006373905
0.0006036083
0.0005999649
0.0005993959
0.000599369
0.0005996891
0.0006372881
0.000603508
0.0005998667
0.0005992993
0.0005992744
0.000599597
0.000637196
0.0006034155
0.0005997757
0.0005992097
0.0005991864
0.0005995112
0.0006371108
0.00060333
0.0005996912
0.0005991265
0.0005991047
0.0005994312
0.0006370319
0.0006032508
0.0005996131
0.0005990496
0.0005990298
0.0005993571
0.0006369587
0.0006031777
0.0005995417
0.0005989801
0.0005989611
0.0005992893
0.0006368913
0.0006031119
0.0005994786
0.0005989197
0.0005989015
0.0005992302
0.0006368318
0.0006030587
0.0005994315
0.000598877
0.0005988601
0.0005991893
0.0006367919
0.0006030431
0.0005994325
0.0005988873
0.0005988731
0.0005992017
0.0006368222
0.0006031455
0.0005995784
0.0005990524
0.0005990392
0.0005993556
0.0001008939
0.0006034371
0.0005999374
0.0005994396
0.0005994156
0.0005996813
0.000101801
0.000101148
0.0001011321
0.0001011007
0.0001010718
0.0001010459
0.0001009427
0.0001008892
0.0001008879
0.0001008683
0.0001008606
0.0001008568
0.0001009009
0.0001008783
0.0001008675
0.0001008614
0.0001008582
0.0001008562
0.0001008727
0.0001008668
0.0001008644
0.0001008613
0.0001008593
0.0001008576
0.0001008657
0.000100862
0.0001008595
0.0001008575
0.0001008561
0.0001008549
0.000100861
0.0001008578
0.0001008571
0.0001008561
0.0001008553
0.0001008545
0.0001008588
0.0001008557
0.0001008552
0.0001008546
0.000100854
0.0001008535
0.0001008573
0.0001008541
0.0001008539
0.0001008536
0.0001008533
0.0001008529
0.0001008563
0.0001008531
0.000100853
0.0001008528
0.0001008526
0.0001008523
0.0001008555
0.0001008523
0.0001008523
0.0001008521
0.000100852
0.0001008519
0.0001008549
0.0001008517
0.0001008517
0.0001008516
0.0001008516
0.0001008515
0.0001008544
0.0001008513
0.0001008513
0.0001008512
0.0001008512
0.0001008511
0.000100854
0.0001008509
0.0001008509
0.0001008509
0.0001008509
0.0001008508
0.0001008536
0.0001008506
0.0001008506
0.0001008506
0.0001008506
0.0001008506
0.0001008533
0.0001008504
0.0001008504
0.0001008504
0.0001008504
0.0001008504
0.000100853
0.0001008502
0.0001008502
0.0001008502
0.0001008502
0.0001008502
0.0001008528
0.00010085
0.00010085
0.00010085
0.00010085
0.00010085
0.0001008525
0.0001008498
0.0001008499
0.0001008499
0.0001008499
0.0001008499
0.0001008523
0.0001008497
0.0001008497
0.0001008497
0.0001008498
0.0001008498
0.0001008521
0.0001008496
0.0001008496
0.0001008496
0.0001008496
0.0001008496
0.000100852
0.0001008495
0.0001008495
0.0001008495
0.0001008495
0.0001008495
0.0001008518
0.0001008494
0.0001008494
0.0001008494
0.0001008494
0.0001008494
0.0001008517
0.0001008493
0.0001008493
0.0001008493
0.0001008494
0.0001008494
0.0001008513
0.0001008492
0.0001008492
0.0001008493
0.0001008493
0.0001008493
0.0001019727
0.0001010807
0.0001010825
0.0001010632
0.000101044
0.000101026
0.0001009099
0.00010088
0.000100888
0.0001008667
0.0001008592
0.0001008554
0.0001008985
0.000100878
0.000100867
0.0001008609
0.0001008572
0.0001008552
0.0001008598
0.0001008658
0.0001008645
0.0001008618
0.0001008595
0.0001008577
0.000100858
0.0001008617
0.0001008593
0.0001008574
0.0001008558
0.0001008547
0.0001008555
0.0001008574
0.000100857
0.000100856
0.0001008552
0.0001008544
0.0001008547
0.0001008555
0.0001008551
0.0001008545
0.0001008539
0.0001008533
0.0001008541
0.0001008539
0.0001008538
0.0001008535
0.0001008531
0.0001008528
0.0001008536
0.0001008529
0.0001008529
0.0001008527
0.0001008524
0.0001008522
0.0001008533
0.0001008521
0.0001008522
0.0001008521
0.0001008519
0.0001008517
0.0001008529
0.0001008516
0.0001008516
0.0001008516
0.0001008514
0.0001008513
0.0001008527
0.0001008511
0.0001008512
0.0001008512
0.0001008511
0.000100851
0.0001008524
0.0001008508
0.0001008509
0.0001008508
0.0001008508
0.0001008507
0.0001008522
0.0001008505
0.0001008506
0.0001008505
0.0001008505
0.0001008505
0.000100852
0.0001008503
0.0001008503
0.0001008503
0.0001008503
0.0001008503
0.0001008518
0.0001008501
0.0001008501
0.0001008501
0.0001008501
0.0001008501
0.0001008517
0.0001008499
0.0001008499
0.0001008499
0.0001008499
0.0001008499
0.0001008515
0.0001008497
0.0001008498
0.0001008498
0.0001008498
0.0001008498
0.0001008514
0.0001008496
0.0001008497
0.0001008497
0.0001008497
0.0001008497
0.0001008513
0.0001008495
0.0001008495
0.0001008495
0.0001008495
0.0001008496
0.0001008511
0.0001008494
0.0001008494
0.0001008494
0.0001008494
0.0001008495
0.000100851
0.0001008493
0.0001008493
0.0001008493
0.0001008494
0.0001008494
0.0001008509
0.0001008492
0.0001008493
0.0001008493
0.0001008493
0.0001008493
0.0001008508
0.0001008492
0.0001008492
0.0001008492
0.0001008492
0.0001008492
0.0001019738
0.0001010476
0.0001010712
0.0001010593
0.0001010372
0.000101018
0.0001009052
0.000100877
0.0001008903
0.0001008669
0.0001008594
0.0001008555
0.0001008983
0.0001008782
0.0001008671
0.0001008607
0.0001008569
0.0001008549
0.0001008604
0.0001008657
0.0001008641
0.0001008614
0.0001008594
0.0001008575
0.0001008584
0.0001008616
0.0001008592
0.0001008572
0.0001008557
0.0001008546
0.0001008557
0.0001008573
0.0001008568
0.000100856
0.0001008552
0.0001008544
0.0001008548
0.0001008555
0.0001008551
0.0001008544
0.0001008538
0.0001008533
0.0001008541
0.0001008539
0.0001008538
0.0001008535
0.0001008531
0.0001008528
0.0001008536
0.0001008529
0.0001008529
0.0001008527
0.0001008524
0.0001008522
0.0001008532
0.0001008521
0.0001008522
0.000100852
0.0001008519
0.0001008517
0.0001008529
0.0001008516
0.0001008516
0.0001008515
0.0001008514
0.0001008513
0.0001008526
0.0001008511
0.0001008512
0.0001008511
0.0001008511
0.000100851
0.0001008524
0.0001008508
0.0001008508
0.0001008508
0.0001008508
0.0001008507
0.0001008521
0.0001008505
0.0001008506
0.0001008505
0.0001008505
0.0001008505
0.0001008519
0.0001008503
0.0001008503
0.0001008503
0.0001008503
0.0001008503
0.0001008518
0.0001008501
0.0001008501
0.0001008501
0.0001008501
0.0001008501
0.0001008516
0.0001008499
0.0001008499
0.0001008499
0.0001008499
0.0001008499
0.0001008515
0.0001008497
0.0001008498
0.0001008498
0.0001008498
0.0001008498
0.0001008513
0.0001008496
0.0001008496
0.0001008497
0.0001008497
0.0001008497
0.0001008512
0.0001008495
0.0001008495
0.0001008495
0.0001008495
0.0001008496
0.0001008511
0.0001008494
0.0001008494
0.0001008494
0.0001008494
0.0001008495
0.000100851
0.0001008493
0.0001008493
0.0001008493
0.0001008494
0.0001008494
0.0001008509
0.0001008492
0.0001008492
0.0001008493
0.0001008493
0.0001008493
0.0001008508
0.0001008491
0.0001008492
0.0001008492
0.0001008492
0.0001008492
0.0001019187
0.0001010351
0.0001010643
0.0001010534
0.0001010372
0.0001010203
0.0001009037
0.0001008761
0.0001008887
0.0001008669
0.0001008592
0.0001008553
0.0001009001
0.0001008781
0.0001008666
0.0001008606
0.0001008571
0.0001008549
0.0001008605
0.0001008656
0.0001008637
0.0001008607
0.0001008587
0.0001008571
0.0001008586
0.0001008613
0.0001008591
0.0001008571
0.0001008557
0.0001008546
0.0001008556
0.0001008572
0.0001008568
0.000100856
0.0001008551
0.0001008544
0.0001008548
0.0001008555
0.0001008551
0.0001008544
0.0001008538
0.0001008533
0.0001008541
0.0001008539
0.0001008538
0.0001008535
0.0001008531
0.0001008528
0.0001008536
0.0001008529
0.0001008529
0.0001008527
0.0001008524
0.0001008522
0.0001008532
0.0001008521
0.0001008522
0.000100852
0.0001008519
0.0001008517
0.0001008529
0.0001008516
0.0001008516
0.0001008515
0.0001008514
0.0001008513
0.0001008526
0.0001008511
0.0001008512
0.0001008511
0.0001008511
0.000100851
0.0001008523
0.0001008508
0.0001008508
0.0001008508
0.0001008508
0.0001008507
0.0001008521
0.0001008505
0.0001008505
0.0001008505
0.0001008505
0.0001008505
0.0001008519
0.0001008502
0.0001008503
0.0001008503
0.0001008503
0.0001008503
0.0001008518
0.00010085
0.0001008501
0.0001008501
0.0001008501
0.0001008501
0.0001008516
0.0001008499
0.0001008499
0.0001008499
0.0001008499
0.0001008499
0.0001008515
0.0001008497
0.0001008498
0.0001008498
0.0001008498
0.0001008498
0.0001008513
0.0001008496
0.0001008496
0.0001008497
0.0001008497
0.0001008497
0.0001008512
0.0001008495
0.0001008495
0.0001008495
0.0001008495
0.0001008496
0.0001008511
0.0001008494
0.0001008494
0.0001008494
0.0001008494
0.0001008495
0.000100851
0.0001008493
0.0001008493
0.0001008493
0.0001008494
0.0001008494
0.0001008509
0.0001008492
0.0001008492
0.0001008493
0.0001008493
0.0001008493
0.0001008508
0.0001008491
0.0001008492
0.0001008492
0.0001008492
0.0001008492
0.000101938
0.0001010374
0.0001010672
0.0001010534
0.0001010352
0.0001010172
0.0001009034
0.0001008761
0.0001008887
0.0001008669
0.0001008592
0.0001008553
0.0001008994
0.0001008781
0.0001008666
0.0001008606
0.0001008571
0.0001008549
0.0001008605
0.0001008656
0.0001008637
0.0001008607
0.0001008587
0.0001008571
0.0001008588
0.0001008613
0.0001008591
0.0001008571
0.0001008557
0.0001008546
0.0001008556
0.0001008572
0.0001008568
0.000100856
0.0001008551
0.0001008544
0.0001008548
0.0001008555
0.0001008551
0.0001008544
0.0001008538
0.0001008533
0.0001008541
0.0001008539
0.0001008538
0.0001008535
0.0001008531
0.0001008528
0.0001008536
0.0001008529
0.0001008529
0.0001008527
0.0001008524
0.0001008522
0.0001008532
0.0001008521
0.0001008522
0.000100852
0.0001008519
0.0001008517
0.0001008529
0.0001008516
0.0001008516
0.0001008515
0.0001008514
0.0001008513
0.0001008526
0.0001008511
0.0001008512
0.0001008511
0.0001008511
0.000100851
0.0001008523
0.0001008508
0.0001008508
0.0001008508
0.0001008508
0.0001008507
0.0001008521
0.0001008505
0.0001008505
0.0001008505
0.0001008505
0.0001008505
0.0001008519
0.0001008502
0.0001008503
0.0001008503
0.0001008503
0.0001008503
0.0001008518
0.00010085
0.0001008501
0.0001008501
0.0001008501
0.0001008501
0.0001008516
0.0001008499
0.0001008499
0.0001008499
0.0001008499
0.0001008499
0.0001008515
0.0001008497
0.0001008498
0.0001008498
0.0001008498
0.0001008498
0.0001008513
0.0001008496
0.0001008496
0.0001008497
0.0001008497
0.0001008497
0.0001008512
0.0001008495
0.0001008495
0.0001008495
0.0001008495
0.0001008496
0.0001008511
0.0001008494
0.0001008494
0.0001008494
0.0001008494
0.0001008495
0.000100851
0.0001008493
0.0001008493
0.0001008493
0.0001008494
0.0001008494
0.0001008509
0.0001008492
0.0001008492
0.0001008493
0.0001008493
0.0001008493
0.0001008508
0.0001008491
0.0001008492
0.0001008492
0.0001008492
0.0001008492
0.0001019721
0.0001010387
0.0001010639
0.000101054
0.0001010378
0.0001010207
0.0001009047
0.000100877
0.0001008903
0.0001008668
0.0001008593
0.0001008555
0.0001008979
0.0001008782
0.0001008671
0.0001008607
0.0001008569
0.0001008549
0.0001008605
0.0001008657
0.0001008641
0.0001008614
0.0001008594
0.0001008575
0.0001008587
0.0001008616
0.0001008592
0.0001008572
0.0001008557
0.0001008546
0.0001008557
0.0001008573
0.0001008568
0.000100856
0.0001008552
0.0001008544
0.0001008548
0.0001008555
0.0001008551
0.0001008544
0.0001008538
0.0001008533
0.0001008541
0.0001008539
0.0001008538
0.0001008535
0.0001008531
0.0001008528
0.0001008536
0.0001008529
0.0001008529
0.0001008527
0.0001008524
0.0001008522
0.0001008532
0.0001008521
0.0001008522
0.000100852
0.0001008519
0.0001008517
0.0001008529
0.0001008516
0.0001008516
0.0001008515
0.0001008514
0.0001008513
0.0001008526
0.0001008511
0.0001008512
0.0001008511
0.0001008511
0.000100851
0.0001008524
0.0001008508
0.0001008508
0.0001008508
0.0001008508
0.0001008507
0.0001008521
0.0001008505
0.0001008506
0.0001008505
0.0001008505
0.0001008505
0.0001008519
0.0001008503
0.0001008503
0.0001008503
0.0001008503
0.0001008503
0.0001008518
0.0001008501
0.0001008501
0.0001008501
0.0001008501
0.0001008501
0.0001008516
0.0001008499
0.0001008499
0.0001008499
0.0001008499
0.0001008499
0.0001008515
0.0001008497
0.0001008498
0.0001008498
0.0001008498
0.0001008498
0.0001008513
0.0001008496
0.0001008496
0.0001008497
0.0001008497
0.0001008497
0.0001008512
0.0001008495
0.0001008495
0.0001008495
0.0001008495
0.0001008496
0.0001008511
0.0001008494
0.0001008494
0.0001008494
0.0001008494
0.0001008495
0.000100851
0.0001008493
0.0001008493
0.0001008493
0.0001008494
0.0001008494
0.0001008509
0.0001008492
0.0001008492
0.0001008493
0.0001008493
0.0001008493
0.0001008508
0.0001008491
0.0001008492
0.0001008492
0.0001008492
0.0001008492
0.0001019407
0.0001010502
0.000101068
0.0001010571
0.0001010405
0.0001010223
0.000100908
0.00010088
0.000100888
0.0001008666
0.0001008592
0.0001008554
0.0001008954
0.000100878
0.000100867
0.0001008609
0.0001008572
0.0001008552
0.0001008605
0.0001008658
0.0001008645
0.0001008618
0.0001008595
0.0001008577
0.0001008589
0.0001008617
0.0001008593
0.0001008574
0.0001008558
0.0001008547
0.0001008556
0.0001008574
0.000100857
0.000100856
0.0001008552
0.0001008544
0.0001008548
0.0001008555
0.0001008551
0.0001008545
0.0001008539
0.0001008533
0.0001008541
0.0001008539
0.0001008538
0.0001008535
0.0001008531
0.0001008528
0.0001008536
0.0001008529
0.0001008529
0.0001008527
0.0001008524
0.0001008522
0.0001008532
0.0001008521
0.0001008522
0.000100852
0.0001008519
0.0001008517
0.0001008529
0.0001008516
0.0001008516
0.0001008516
0.0001008514
0.0001008513
0.0001008526
0.0001008511
0.0001008512
0.0001008511
0.0001008511
0.000100851
0.0001008523
0.0001008508
0.0001008509
0.0001008508
0.0001008508
0.0001008507
0.0001008521
0.0001008505
0.0001008506
0.0001008505
0.0001008505
0.0001008505
0.0001008519
0.0001008503
0.0001008503
0.0001008503
0.0001008503
0.0001008503
0.0001008518
0.0001008501
0.0001008501
0.0001008501
0.0001008501
0.0001008501
0.0001008516
0.0001008499
0.0001008499
0.0001008499
0.0001008499
0.0001008499
0.0001008515
0.0001008497
0.0001008498
0.0001008498
0.0001008498
0.0001008498
0.0001008513
0.0001008496
0.0001008497
0.0001008497
0.0001008497
0.0001008497
0.0001008512
0.0001008495
0.0001008495
0.0001008495
0.0001008495
0.0001008496
0.0001008511
0.0001008494
0.0001008494
0.0001008494
0.0001008494
0.0001008495
0.000100851
0.0001008493
0.0001008493
0.0001008493
0.0001008494
0.0001008494
0.0001008509
0.0001008492
0.0001008493
0.0001008493
0.0001008493
0.0001008493
0.0001008508
0.0001008492
0.0001008492
0.0001008492
0.0001008492
0.0001008492
0.0001017766
0.0001010875
0.0001011082
0.0001010887
0.0001010649
0.0001010427
0.0001009153
0.0001008892
0.0001008879
0.0001008683
0.0001008606
0.0001008567
0.0001008878
0.0001008783
0.0001008675
0.0001008614
0.0001008582
0.0001008562
0.0001008625
0.0001008668
0.0001008644
0.0001008613
0.0001008593
0.0001008576
0.00010086
0.000100862
0.0001008595
0.0001008575
0.0001008561
0.0001008549
0.0001008566
0.0001008578
0.0001008571
0.0001008561
0.0001008553
0.0001008545
0.0001008556
0.0001008557
0.0001008552
0.0001008546
0.000100854
0.0001008535
0.0001008547
0.0001008541
0.0001008539
0.0001008536
0.0001008533
0.0001008529
0.0001008541
0.0001008531
0.000100853
0.0001008528
0.0001008526
0.0001008523
0.0001008536
0.0001008523
0.0001008523
0.0001008521
0.000100852
0.0001008519
0.0001008532
0.0001008517
0.0001008517
0.0001008516
0.0001008516
0.0001008515
0.0001008529
0.0001008513
0.0001008513
0.0001008512
0.0001008512
0.0001008511
0.0001008526
0.0001008509
0.0001008509
0.0001008509
0.0001008509
0.0001008508
0.0001008524
0.0001008506
0.0001008506
0.0001008506
0.0001008506
0.0001008506
0.0001008522
0.0001008504
0.0001008504
0.0001008504
0.0001008504
0.0001008504
0.000100852
0.0001008501
0.0001008502
0.0001008502
0.0001008502
0.0001008502
0.0001008518
0.00010085
0.00010085
0.00010085
0.00010085
0.00010085
0.0001008516
0.0001008498
0.0001008499
0.0001008499
0.0001008499
0.0001008499
0.0001008515
0.0001008497
0.0001008497
0.0001008497
0.0001008498
0.0001008498
0.0001008514
0.0001008496
0.0001008496
0.0001008496
0.0001008496
0.0001008496
0.0001008512
0.0001008495
0.0001008495
0.0001008495
0.0001008495
0.0001008495
0.0001008511
0.0001008494
0.0001008494
0.0001008494
0.0001008494
0.0001008494
0.000100851
0.0001008493
0.0001008493
0.0001008493
0.0001008493
0.0001008494
0.0001008514
0.0001008492
0.0001008492
0.0001008493
0.0001008493
0.0001008493
0.0001134859
0.0001088924
0.0001075267
0.0001065853
0.0001058912
0.0001053445
0.0001010023
0.0001009966
0.0001010049
0.0001009998
0.0001009866
0.0001009825
0.0001009848
0.0001009475
0.0001009723
0.0001009608
0.0001009498
0.0001009442
0.0001009431
0.0001009436
0.0001009072
0.0001009273
0.0001009354
0.0001009293
0.0001009252
0.0001009219
0.0001009192
0.0001008979
0.0001009209
0.0001009289
0.000100926
0.0001009233
0.0001009209
0.0001009187
0.0001008897
0.0001009115
0.0001009213
0.00010092
0.0001009185
0.0001009169
0.0001009154
0.0001008846
0.000100908
0.0001009169
0.0001009165
0.0001009157
0.0001009146
0.0001009135
0.0001008807
0.0001009049
0.0001009134
0.0001009134
0.000100913
0.0001009123
0.0001009115
0.0001008777
0.0001009029
0.0001009107
0.0001009109
0.0001009108
0.0001009104
0.0001009098
0.0001008753
0.0001009014
0.0001009085
0.0001009088
0.0001009089
0.0001009087
0.0001009082
0.0001008733
0.0001009002
0.0001009067
0.0001009071
0.0001009073
0.0001009072
0.0001009068
0.0001008716
0.0001008993
0.0001009051
0.0001009056
0.0001009058
0.0001009058
0.0001009056
0.0001008702
0.0001008985
0.0001009038
0.0001009043
0.0001009046
0.0001009046
0.0001009045
0.0001008689
0.0001008978
0.0001009027
0.0001009032
0.0001009035
0.0001009036
0.0001009035
0.0001008679
0.0001008973
0.0001009017
0.0001009022
0.0001009025
0.0001009026
0.0001009026
0.0001008669
0.0001008968
0.0001009009
0.0001009013
0.0001009016
0.0001009017
0.0001009017
0.000100866
0.0001008964
0.0001009001
0.0001009006
0.0001009008
0.0001009009
0.000100901
0.0001008652
0.000100896
0.0001008994
0.0001008998
0.0001009001
0.0001009002
0.0001009003
0.0001008645
0.0001008957
0.0001008987
0.0001008992
0.0001008995
0.0001008996
0.0001008996
0.0001008638
0.0001008954
0.0001008982
0.0001008986
0.0001008989
0.000100899
0.0001008991
0.0001008632
0.0001008951
0.0001008976
0.0001008981
0.0001008983
0.0001008985
0.0001008985
0.0001008627
0.0001008948
0.0001008972
0.0001008976
0.0001008978
0.000100898
0.000100898
0.0001008622
0.0001008946
0.0001008967
0.0001008971
0.0001008974
0.0001008975
0.0001008976
0.0001008609
0.000637248
0.0001008963
0.0001008967
0.0001008969
0.000100897
0.0001008971
0.0003081691
0.0001146945
0.0001011189
0.0001010774
0.0003098535
0.0002981411
0.00011349
0.0001094698
0.0001010179
0.0001009364
0.0002975146
0.0002971408
0.0001088943
0.0001076867
0.0001009208
0.0001009151
0.0002967274
0.0002967533
0.0001075276
0.0001066287
0.0001009026
0.000100895
0.0002963549
0.0002964641
0.000106586
0.00010587
0.000100894
0.0001008808
0.0002960769
0.000296248
0.0001058916
0.0001052679
0.0001008895
0.0001008745
0.0002958753
0.0001053447
0.0001008857
0.0003090878
0.0002974719
0.000101001
0.0001009678
0.0001009322
0.0001009613
0.0002967387
0.0002964116
0.0001009439
0.0001009325
0.0001008962
0.000100903
0.0002960306
0.0002959702
0.0001009042
0.000100892
0.0001008841
0.0001008865
0.0002956378
0.0002956158
0.0001008949
0.0001008832
0.0001008769
0.0001008773
0.0002953356
0.0002953316
0.0001008859
0.0001008753
0.0001008732
0.0001008723
0.0002950829
0.000295089
0.000100881
0.0001008718
0.0001008705
0.0001008692
0.0002948681
0.0002948801
0.0001008772
0.000100869
0.0001008687
0.0001008669
0.0002946806
0.0002946963
0.0001008744
0.0001008671
0.0001008673
0.0001008653
0.0002945147
0.0002945329
0.0001008722
0.0001008656
0.0001008661
0.0001008641
0.0002943662
0.0002943861
0.0001008704
0.0001008643
0.0001008652
0.0001008631
0.0002942321
0.0002942531
0.0001008689
0.0001008633
0.0001008643
0.0001008622
0.0002941101
0.0002941317
0.0001008677
0.0001008624
0.0001008636
0.0001008615
0.0002939983
0.0002940203
0.0001008666
0.0001008616
0.0001008629
0.0001008608
0.0002938954
0.0002939175
0.0001008656
0.0001008609
0.0001008623
0.0001008602
0.0002938004
0.0002938222
0.0001008647
0.0001008602
0.0001008618
0.0001008596
0.0002937121
0.0002937335
0.000100864
0.0001008597
0.0001008613
0.0001008591
0.0002936301
0.0002936511
0.0001008633
0.0001008591
0.0001008608
0.0001008586
0.0002935537
0.0002935742
0.0001008626
0.0001008586
0.0001008604
0.0001008582
0.0002934823
0.0002935026
0.0001008621
0.0001008582
0.0001008599
0.0001008578
0.000293416
0.0002934364
0.0001008615
0.0001008578
0.0001008596
0.0001008574
0.0002933549
0.000293379
0.000100861
0.0001008574
0.0001008592
0.0001008571
0.0002933048
0.0002933572
0.0001008606
0.000100857
0.0001008589
0.0001008568
0.0002933116
0.0001014275
0.0001008608
0.0001008567
0.0001008588
0.0001008559
0.0001154898
0.0001010055
0.0001010233
0.0001179351
0.0001009696
0.0001010248
0.000116876
0.0001009665
0.0001010677
0.0001171577
0.0001009605
0.0001010719
0.0001171996
0.0001009664
0.0001010763
0.0001167118
0.0001009654
0.0001010747
0.0001178147
0.0001009669
0.0001010725
0.0001176247
0.0001009695
0.0001010726
0.0001166768
0.0001009666
0.0001010727
0.0001177344
0.0001009689
0.0001010734
0.0001168948
0.0001009635
0.000101076
0.000117288
0.0001009689
0.000101076
0.0001171448
0.0001009598
0.0001010718
0.0001168058
0.0001009712
0.0001010676
0.0001179748
0.0001009658
0.0001010253
0.0001154559
0.0001010077
0.0001010232
0.0001147635
0.0001011164
0.0001010783
0.0003081701
0.0001095159
0.0001010179
0.0001009373
0.0003098542
0.0002981419
0.0001077213
0.0001009208
0.0001009159
0.0002975143
0.0002971383
0.0001066552
0.0001009026
0.0001008958
0.0002967258
0.0002967561
0.0001058917
0.0001008941
0.0001008815
0.0002963558
0.0002964612
0.0001052856
0.0001008895
0.0001008753
0.0002960756
0.0002962476
0.0001008822
0.000100877
0.0001008773
0.0002956287
0.0002956156
0.0001008708
0.0001008705
0.0001008692
0.0002950778
0.0002950877
0.000100868
0.0001008687
0.0001008669
0.0002948653
0.0002948795
0.0001008662
0.0001008673
0.0001008653
0.0002946786
0.0002946952
0.0001008647
0.0001008661
0.0001008641
0.0002945128
0.0002945311
0.0001008635
0.0001008651
0.0001008631
0.0002943643
0.0002943851
0.0001008609
0.0001008629
0.0001008608
0.000293998
0.0002940193
0.0001008601
0.0001008623
0.0001008602
0.0002938951
0.0002939165
0.0001008595
0.0001008617
0.0001008596
0.0002938002
0.0002938212
0.000100859
0.0001008612
0.0001008591
0.0002937121
0.0002937325
0.000100858
0.0001008603
0.0001008582
0.0002935538
0.0002935732
0.0001008575
0.0001008599
0.0001008578
0.0002934825
0.0002935013
0.0001008568
0.0001008592
0.0001008571
0.0002933565
0.0002933782
0.0001008564
0.0001008588
0.0001008568
0.0002933072
0.0002933569
0.0001008567
0.0001008579
0.0001008565
0.0002933121
0.0001014282
0.0001040743
0.0001513398
0.0001024709
0.0001479399
0.0001024074
0.0001474157
0.0001020126
0.0001467555
0.0001019327
0.0001466468
0.0001017797
0.000146172
0.0001017259
0.0001461663
0.0001016296
0.0001457607
0.000101585
0.0001457984
0.0001015199
0.0001454374
0.0001014836
0.0001455068
0.0001014319
0.0001451731
0.0001014058
0.0001452707
0.0001014529
0.0001470948
0.0001016294
0.0001467051
0.0001012386
0.0001460608
0.0001013186
0.0001459787
0.0001011421
0.0001455266
0.000101188
0.0001454935
0.0001010861
0.0001451189
0.0001011207
0.000145105
0.0001010476
0.0001447924
0.0001010732
0.0001447895
0.0001010201
0.0001445168
0.0001010404
0.0001445205
0.0001009993
0.00014428
0.0001010158
0.0001442871
0.0001009829
0.0001440747
0.0001009969
0.0001440828
0.0001009698
0.0001438932
0.0001009819
0.0001439014
0.000100959
0.0001437308
0.0001009696
0.0001437384
0.0001009501
0.000143584
0.0001009596
0.000143591
0.0001009425
0.00014345
0.0001009511
0.0001434565
0.0001009361
0.000143327
0.0001009437
0.0001433331
0.0001009304
0.0001432136
0.0001009373
0.0001432192
0.0001009253
0.0001431087
0.0001009316
0.0001431135
0.0001009208
0.0001430114
0.0001009265
0.0001430154
0.0001009168
0.0001429207
0.0001009219
0.000142924
0.0001009131
0.000142836
0.0001009178
0.0001428386
0.0001009098
0.0001427568
0.0001009141
0.0001427587
0.0001009067
0.0001426826
0.0001009106
0.0001426839
0.0001009039
0.0001426131
0.0001009075
0.0001426139
0.0001009014
0.0001425481
0.0001009047
0.0001425488
0.0001008991
0.0001424901
0.0001009021
0.0001424985
0.000104207
0.0001041739
0.0001040727
0.0001040165
0.0001041098
0.0001040304
0.0001040887
0.0001040913
0.0001040701
0.0001040949
0.0001040585
0.0001040896
0.0001040443
0.0001041356
0.0001040825
0.0001041275
0.0001038488
0.0001042625
0.000100885
0.0002958736
0.0001009672
0.000100932
0.0001009615
0.0003090784
0.0002974729
0.0001009315
0.000100896
0.000100903
0.0002967307
0.0002964108
0.0001008908
0.0001008841
0.0001008865
0.0002960233
0.0002959685
0.0001008743
0.0001008732
0.0001008723
0.0002953327
0.0002953292
0.0001008625
0.0001008643
0.0001008622
0.0002942309
0.0002942513
0.0001008616
0.0001008636
0.0001008614
0.0002941085
0.000294131
0.0001008584
0.0001008607
0.0001008586
0.0002936299
0.0002936498
0.0001008571
0.0001008595
0.0001008574
0.0002934157
0.0002934369
0.000102853
0.0001484484
0.0001029192
0.0001538953
0.0001012782
0.0001477131
0.000101313
0.0001528562
0.0001038472
0.0001042715
0.0001020642
0.0001470797
0.0001022307
0.0001471942
0.0001018046
0.0001464829
0.0001019667
0.0001464576
0.0001016388
0.0001460655
0.0001017855
0.0001459838
0.0001015262
0.0001457376
0.0001016495
0.0001456162
0.000101439
0.000145471
0.0001015435
0.0001453217
0.0001013741
0.000146367
0.0001013835
0.0001465054
0.0001012153
0.0001457724
0.0001012187
0.0001458171
0.0001011321
0.0001453324
0.0001011391
0.0001453532
0.0001010804
0.0001449749
0.0001010853
0.0001449828
0.0001010449
0.0001446809
0.0001010485
0.0001446809
0.0001010187
0.0001444265
0.0001010215
0.0001444214
0.0001009988
0.0001442063
0.0001010008
0.0001441981
0.0001009831
0.0001440119
0.0001009845
0.0001440024
0.0001009704
0.0001438384
0.0001009714
0.0001438285
0.00010096
0.0001436822
0.0001009606
0.0001436721
0.0001009511
0.0001435401
0.0001009516
0.00014353
0.0001009436
0.0001434101
0.0001009439
0.0001434002
0.0001009371
0.0001432903
0.0001009373
0.0001432811
0.0001009313
0.0001431795
0.0001009314
0.000143171
0.0001009262
0.0001430769
0.0001009262
0.0001430691
0.0001009217
0.0001429813
0.0001009216
0.0001429743
0.0001009175
0.0001428922
0.0001009174
0.000142886
0.0001009138
0.0001428089
0.0001009137
0.0001428034
0.0001009104
0.0001427308
0.0001009102
0.0001427262
0.0001009073
0.0001426579
0.0001009071
0.0001426538
0.0001009045
0.0001425897
0.0001009043
0.0001425862
0.0001009018
0.0001425278
0.0001009017
0.0001425233
0.0001008995
0.00010227
0.0001424815
0.000100899
0.0001040849
0.0001041399
0.000104075
0.0001041427
0.0001040874
0.0001041156
0.0001040997
0.0001041319
0.0001040997
0.0001040812
0.0001041272
0.0001040634
0.0001041085
0.0001040331
0.0001041861
0.000104163
0.0001040965
0.0001513464
0.0001020693
0.0001470183
0.0001022256
0.0001471922
0.0001020122
0.0001467536
0.0001019288
0.0001466464
0.0001010857
0.0001451319
0.0001011201
0.000145118
0.0001010198
0.0001445299
0.00010104
0.00014452
0.0001010187
0.0001444259
0.0001010215
0.0001444209
0.0001009989
0.0001442805
0.0001010154
0.0001442867
0.00010096
0.0001436817
0.0001009606
0.0001436713
0.0001009359
0.0001433252
0.0001009435
0.0001433326
0.0001009371
0.0001432898
0.0001009373
0.0001432806
0.0001009302
0.0001432132
0.0001009371
0.0001432187
0.0001009313
0.0001431791
0.0001009315
0.0001431705
0.0001009252
0.0001431084
0.0001009314
0.0001431131
0.0001009262
0.0001430764
0.0001009263
0.0001430686
0.0001009207
0.000143011
0.0001009263
0.000143015
0.0001009216
0.0001429809
0.0001009216
0.0001429738
0.000100913
0.0001428356
0.0001009177
0.0001428382
0.0001009138
0.0001428085
0.0001009137
0.000142803
0.0001009097
0.0001427563
0.0001009139
0.0001427583
0.0001009104
0.0001427305
0.0001009103
0.0001427257
0.0001009039
0.0001426264
0.0001009075
0.0001426134
0.0001009044
0.0001425892
0.0001009043
0.0001425857
0.0001009013
0.0001425475
0.0001009046
0.0001425479
0.0001009018
0.0001425288
0.0001009018
0.0001425222
0.0001008991
0.00014249
0.000100902
0.0001425004
0.0001008995
0.0001176989
0.0001424823
0.0001008998
0.000123063
0.0001440584
0.000118191
0.0001505457
0.0001185345
0.0001504858
0.0001133506
0.0001501701
0.0001141921
0.0001501408
0.0001110964
0.0001499554
0.0001119737
0.0001499409
0.0001096147
0.0001498075
0.0001104902
0.0001498033
0.0001085541
0.0001496952
0.0001094069
0.0001496986
0.0001077717
0.0001496054
0.0001085576
0.0001496152
0.0001250758
0.0001253994
0.0001257198
0.0001259596
0.0001259481
0.0001260272
0.0001256602
0.0001260281
0.0001255574
0.0001260074
0.000125962
0.0001257102
0.0001254838
0.0001255309
0.0001250341
0.0001248351
0.000123727
0.0001241923
0.00012427
0.0001507251
0.0001256706
0.0001508248
0.0001241857
0.0001242633
0.0001163611
0.0001502857
0.0001189405
0.0001502605
0.0001130573
0.000150056
0.0001154033
0.0001500129
0.000111099
0.0001499019
0.0001131807
0.000149848
0.0001097561
0.0001497858
0.000111582
0.0001497246
0.0001087448