/*--------------------------------*- C++ -*----------------------------------*\
  =========                 |
  \\      /  F ield         | OpenFOAM: The Open Source CFD Toolbox
   \\    /   O peration     | Website:  https://openfoam.org
    \\  /    A nd           | Version:  7
     \\/     M anipulation  |
\*---------------------------------------------------------------------------*/
FoamFile
{
    version     2.0;
    format      ascii;
    class       volScalarField;
    location    "0.08";
    object      p;
}
// * * * * * * * * * * * * * * * * * * * * * * * * * * * * * * * * * * * * * //

dimensions      [0 2 -2 0 0 0 0];

internalField   nonuniform List<scalar> 
109978
(
0.02538206
0.03558324
0.05185576
0.06406936
0.07645873
0.08845151
0.0256154
0.03507622
0.052415
0.06708925
0.07991618
0.09204597
0.02641994
0.03753577
0.05377885
0.06935569
0.08239973
0.09455362
0.02681423
0.03870572
0.05511501
0.0703713
0.08352265
0.09593104
0.02735858
0.03916507
0.05608977
0.07135254
0.08457507
0.09699952
0.02744299
0.03967192
0.05673008
0.07219219
0.08550798
0.09808921
0.02766515
0.04019294
0.05746349
0.07310314
0.08658103
0.09926402
0.02785705
0.04069459
0.05816411
0.0740126
0.08765538
0.1005019
0.02811655
0.04131594
0.0589576
0.0750257
0.08885356
0.1018757
0.02840132
0.04196436
0.05981164
0.07610091
0.09012496
0.1033369
0.02873412
0.04270736
0.06072422
0.07727191
0.09150478
0.1049418
0.02910377
0.04351088
0.06170876
0.07852109
0.09297569
0.1066845
0.02951072
0.04442354
0.06275258
0.07986368
0.09456614
0.1089645
0.02995522
0.04538802
0.06384445
0.08127958
0.09625521
0.1122749
0.03047673
0.04641482
0.06500806
0.08280298
0.09835485
0.1157493
0.03108387
0.04748397
0.0662326
0.08436913
0.101381
0.1197926
0.03174328
0.04857015
0.06752309
0.08609874
0.1044113
0.1240042
0.03247442
0.04966272
0.06891279
0.08816507
0.1075305
0.12626
0.03323189
0.05074294
0.070323
0.09066042
0.1119396
0.127347
0.03403829
0.05184033
0.07179881
0.09372723
0.116672
0.1288687
0.03489032
0.05297086
0.07353706
0.09656445
0.1197603
0.1314744
0.03581512
0.05415086
0.07569436
0.1001696
0.1220013
0.1343124
0.02802188
0.05536834
0.07859218
0.1046561
0.1234311
0.1370524
0.02067236
0.0368654
0.051061
0.06494576
0.07681418
0.08871728
0.009562872
0.01990636
0.02946815
0.04309082
0.05401908
0.06656846
0.009600625
0.01957316
0.02979097
0.04324117
0.05467289
0.06686769
0.009144811
0.02010347
0.02952318
0.04423691
0.05491653
0.06743039
0.009094788
0.01952779
0.02970569
0.04418358
0.05556467
0.06792375
0.009292116
0.02043424
0.02996
0.04495919
0.05605454
0.06859751
0.009324544
0.02042927
0.03019494
0.04510907
0.05652778
0.06910237
0.009453681
0.02092593
0.03056399
0.04575743
0.05715866
0.06987401
0.009574193
0.02115197
0.03086682
0.04614431
0.05772894
0.07056042
0.009719286
0.02154111
0.03129449
0.04675368
0.05845794
0.07143176
0.009862838
0.02187527
0.03171036
0.04731369
0.05918721
0.07231343
0.01001581
0.0222721
0.03220267
0.04797389
0.06002749
0.07331419
0.01017425
0.02266868
0.03271478
0.04866284
0.06089612
0.07436204
0.01034136
0.02309416
0.03328528
0.04943377
0.06187231
0.07562401
0.01051662
0.02355053
0.03389002
0.05022952
0.06286619
0.0767772
0.01070052
0.02404867
0.03455257
0.05113009
0.06404595
0.07827478
0.01089859
0.02456713
0.035245
0.05209145
0.06517799
0.07991572
0.01111076
0.02511374
0.03597781
0.05313029
0.06643144
0.08146829
0.01133874
0.02570699
0.03678456
0.05433648
0.06801921
0.08392402
0.01159007
0.02632916
0.03762412
0.05549212
0.06975995
0.085556
0.01186238
0.02699625
0.03853209
0.05669861
0.07148114
0.08645755
0.01215882
0.0277294
0.0395437
0.05823387
0.07334968
0.08850138
0.01247456
0.02850814
0.04063867
0.05994148
0.07513731
0.09064208
0.007449905
0.02938351
0.04185787
0.0619989
0.07790158
0.09347866
0.01931826
0.04127874
0.0551141
0.06991614
0.08162072
0.09224482
0.007995436
0.01745052
0.02989703
0.04248032
0.05424587
0.06700666
0.006765029
0.01821395
0.02932192
0.04139457
0.05481147
0.06670695
0.005170133
0.01791141
0.02988122
0.04229251
0.05485077
0.06710897
0.004767562
0.01801548
0.03010749
0.04221105
0.05518923
0.06722284
0.004791674
0.01830529
0.03031284
0.04286512
0.05555496
0.0677751
0.004811706
0.01833733
0.03060128
0.04306919
0.05600038
0.06821823
0.004886871
0.01865253
0.03091602
0.04366814
0.05659108
0.06894138
0.004972437
0.0187952
0.0312356
0.0440784
0.05716785
0.06962604
0.005055776
0.01909604
0.03164739
0.0446987
0.05790339
0.07050093
0.005128407
0.01935004
0.03206032
0.04528256
0.05865517
0.07141151
0.005206312
0.01967592
0.03255109
0.04598054
0.05953338
0.07246879
0.005289422
0.02000914
0.03306896
0.04670983
0.06046904
0.07360698
0.005380794
0.02038018
0.03364598
0.04752155
0.06151331
0.07488216
0.00547873
0.02078026
0.03426439
0.04838702
0.06262388
0.07627415
0.005584125
0.0212191
0.03493818
0.04933357
0.06383977
0.07788374
0.00569757
0.0216892
0.03565996
0.05034804
0.06516057
0.07955189
0.005818912
0.02219001
0.03643222
0.05142495
0.06659333
0.08126549
0.005951571
0.02273147
0.03727276
0.05259405
0.06822657
0.08301128
0.006095164
0.02331245
0.03817097
0.0538501
0.06995835
0.08507859
0.006249096
0.02394206
0.03913579
0.05521489
0.07175324
0.08733844
0.006416467
0.02462034
0.04016976
0.05670279
0.07364247
0.08954467
0.006594271
0.02536073
0.04129181
0.05836972
0.07562505
0.09180206
0.006724749
0.02615788
0.04252182
0.06024277
0.07786673
0.09407935
0.02109474
0.04293141
0.05589136
0.07227097
0.08572501
0.09798102
0.006213125
0.01715841
0.03029593
0.04228794
0.05439072
0.06689767
0.004487022
0.01828134
0.02944373
0.04190846
0.0546788
0.0667159
0.003241912
0.01833346
0.03002461
0.04308752
0.05480392
0.06738659
0.003089344
0.0184224
0.03023063
0.0429727
0.05520078
0.06760172
0.00310398
0.01890403
0.03043786
0.04384444
0.05562376
0.06832003
0.003119754
0.01889714
0.03069283
0.04394282
0.05602759
0.06873663
0.003161391
0.01931571
0.0310371
0.04464877
0.05665577
0.06952607
0.003189243
0.01945046
0.03134002
0.04501183
0.05719583
0.07017769
0.003230679
0.01978918
0.03177027
0.04566487
0.05793954
0.07106316
0.003268847
0.02004224
0.03217804
0.0462336
0.05866371
0.07194074
0.003313761
0.0203762
0.03267344
0.0469362
0.05951985
0.0729636
0.003360925
0.02070732
0.03318721
0.04765991
0.06041574
0.07404071
0.003412908
0.02107992
0.03376179
0.04847038
0.06141889
0.07525563
0.003469003
0.0214753
0.03437444
0.04932813
0.06247884
0.07650428
0.00353021
0.02190588
0.03504312
0.05027094
0.06365301
0.07791804
0.003596227
0.02236692
0.03575898
0.05128031
0.06489213
0.07942981
0.003667346
0.02286125
0.0365265
0.05236304
0.06622096
0.0810335
0.003744651
0.02339693
0.03736247
0.05355085
0.06770025
0.08285091
0.003828074
0.02396703
0.03825278
0.05479678
0.069272
0.08468257
0.003918668
0.02458278
0.0392144
0.056138
0.07095323
0.08657994
0.004017496
0.02524752
0.04025395
0.0576065
0.07276981
0.08870798
0.004126037
0.02596795
0.04137931
0.05919649
0.07471803
0.09099287
0.004241662
0.02674899
0.04260848
0.06094903
0.07688136
0.09351389
0.02022435
0.04378182
0.05593852
0.07260925
0.08650765
0.09717999
0.006038234
0.01584982
0.0308046
0.04163338
0.05442742
0.06661769
0.003910406
0.01805573
0.02960201
0.04183051
0.05472554
0.0666563
0.002878902
0.01767669
0.03023236
0.04256286
0.05489677
0.06722155
0.002814595
0.01793847
0.03042868
0.04252918
0.05526058
0.06736899
0.002813653
0.01832123
0.03060458
0.04332318
0.0556593
0.06806268
0.002827059
0.01829755
0.03088208
0.04341696
0.05606506
0.06845478
0.002863281
0.0186912
0.0312096
0.04410548
0.05668096
0.06923487
0.002885799
0.01879884
0.03151671
0.04445504
0.05721868
0.0698783
0.002923808
0.01912346
0.03194532
0.0451028
0.05796248
0.07076512
0.002957926
0.01935832
0.03235193
0.04566193
0.05868719
0.07164403
0.00299909
0.01968065
0.03284896
0.04636133
0.05955086
0.0726775
0.003042279
0.02
0.03336436
0.04708071
0.06045795
0.07377066
0.003090177
0.02036271
0.03394235
0.04788775
0.06147075
0.07499029
0.003141835
0.02074877
0.0345599
0.04874848
0.06255079
0.0762877
0.00319793
0.02116976
0.035233
0.04968874
0.0637306
0.07771221
0.003258161
0.02162261
0.03595671
0.05070034
0.06499588
0.07923556
0.00332334
0.02210869
0.03673341
0.05178484
0.06635362
0.08085345
0.003394732
0.02263584
0.03757635
0.0529651
0.06783392
0.08260254
0.003472573
0.02319805
0.03847401
0.05422082
0.06940717
0.08446257
0.003559064
0.02381274
0.03944812
0.05559398
0.07109712
0.08647567
0.003653442
0.02446614
0.04047934
0.0570513
0.07287661
0.08859672
0.003757304
0.02519871
0.04161437
0.05869469
0.0748024
0.09094401
0.003868286
0.02596346
0.04280841
0.06039911
0.07684153
0.09335473
0.0232449
0.03909246
0.05675132
0.07153345
0.08417088
0.09746339
0.006095627
0.01611627
0.03075064
0.04067726
0.0554599
0.06645907
0.003780902
0.01811301
0.02968719
0.0418774
0.0546606
0.06667336
0.002797493
0.01768899
0.03021732
0.04251543
0.05497152
0.06721588
0.002768569
0.01794927
0.03044162
0.04252951
0.0552736
0.06737182
0.002795349
0.01832486
0.03060619
0.04332578
0.05566864
0.06806662
0.002811933
0.0183001
0.03088533
0.04342021
0.05606988
0.06845785
0.002850339
0.01869293
0.03121159
0.04410847
0.05668425
0.06923763
0.002875697
0.01880005
0.03151846
0.04445742
0.05722111
0.06988066
0.002915434
0.01912456
0.03194682
0.04510489
0.0579646
0.0707671
0.002952265
0.01935929
0.03235337
0.04566385
0.05868906
0.07164606
0.002996469
0.01968174
0.03285041
0.0463632
0.05955286
0.07267925
0.003043039
0.02000109
0.03336594
0.04708275
0.06046001
0.07377288
0.003094764
0.02036401
0.03394409
0.04788993
0.06147315
0.07499228
0.003150579
0.02075035
0.03456204
0.04875117
0.06255367
0.07629033
0.00321124
0.02117177
0.03523568
0.04969196
0.06373461
0.07771493
0.003276638
0.0216253
0.03596031
0.05070439
0.06500137
0.07923879
0.003347042
0.02211247
0.03673865
0.05179005
0.0663629
0.08085714
0.003423233
0.02264007
0.03758236
0.05296837
0.06784688
0.08260286
0.003505056
0.02320376
0.03848437
0.05422437
0.06943366
0.08446365
0.003593612
0.02381343
0.03945431
0.05557634
0.07112914
0.08645063
0.003688784
0.02446629
0.04049748
0.05702406
0.07295021
0.08857294
0.00379211
0.02517163
0.04161459
0.05857783
0.07489768
0.090831
0.003902642
0.02592732
0.04283382
0.0602487
0.07700917
0.09325332
0.02401883
0.03519271
0.05750857
0.07271928
0.08582753
0.09813216
0.006079638
0.01738271
0.0301899
0.0423788
0.05414808
0.06743077
0.003693463
0.01829596
0.02946483
0.04199918
0.05467007
0.06673906
0.002852423
0.01836037
0.03002427
0.043095
0.05478112
0.06744728
0.002838681
0.01843139
0.03024309
0.04298794
0.055203
0.06761017
0.002878045
0.01890707
0.03044102
0.04384617
0.05562277
0.06832559
0.002895355
0.01889885
0.03069633
0.04394513
0.05602837
0.06873754
0.002934616
0.01931545
0.03103817
0.04464843
0.05665525
0.06952515
0.002961817
0.01945008
0.03134038
0.0450112
0.05719496
0.07017632
0.003002463
0.01978832
0.03176987
0.04566351
0.05793832
0.07106126
0.003040738
0.02004136
0.03217719
0.04623201
0.05866142
0.07193854
0.003086075
0.02037509
0.03267209
0.04693422
0.05951733
0.0729612
0.003134031
0.02070633
0.03318547
0.04765781
0.06041303
0.07403821
0.003187123
0.02107856
0.03375932
0.04846762
0.06141544
0.07525288
0.003244244
0.02147345
0.03437088
0.04932477
0.06247429
0.07650167
0.003306131
0.02190283
0.0350373
0.05026574
0.06364559
0.07791441
0.003372655
0.02236269
0.03575024
0.0512743
0.06488169
0.07942798
0.003443913
0.02285362
0.03651033
0.0523522
0.06619982
0.08102946
0.003520872
0.02338809
0.03733847
0.053543
0.06766924
0.08285852
0.003602832
0.02395003
0.03820583
0.0547773
0.06920544
0.08468145
0.003691949
0.02457255
0.03914943
0.05614935
0.07085382
0.0866301
0.0037866
0.02522191
0.04013005
0.05759266
0.07256143
0.0887268
0.003891032
0.02598888
0.04122461
0.05933248
0.0744111
0.09119017
0.003997784
0.02674157
0.04233082
0.06099477
0.07629228
0.09351151
0.02384228
0.03449342
0.05667131
0.0716541
0.08560645
0.09389776
0.00511692
0.01770176
0.02990683
0.04254034
0.05446936
0.06685358
0.003428757
0.01830111
0.0293887
0.04145725
0.05485262
0.06678521
0.00286523
0.01796034
0.02990537
0.04233466
0.05489676
0.06713626
0.002908997
0.01803639
0.03012775
0.04223765
0.05521363
0.06724147
0.002921484
0.01831671
0.03032329
0.04288112
0.05556888
0.0677858
0.002946852
0.01834293
0.03060827
0.0430791
0.05600924
0.06822492
0.002981086
0.01865541
0.03091999
0.04367441
0.05659648
0.06894588
0.003010234
0.01879664
0.03123829
0.0440827
0.05717176
0.06962927
0.003050381
0.01909704
0.03164928
0.04470176
0.05790612
0.07050348
0.003089315
0.01935082
0.03206184
0.04528499
0.05865797
0.07141377
0.003135958
0.01967701
0.03255234
0.04598259
0.05953538
0.07247059
0.003185456
0.02001081
0.03307017
0.04671159
0.0604705
0.07360857
0.003240529
0.02038185
0.03364688
0.04752299
0.0615142
0.07488338
0.003300756
0.02078197
0.03426469
0.04838833
0.06262491
0.07627547
0.003365924
0.02122015
0.03493751
0.04933417
0.06384042
0.07788459
0.003435506
0.02169017
0.03565794
0.05034818
0.06516289
0.07955412
0.00350921
0.0221904
0.0364271
0.05142223
0.06659504
0.08126764
0.003588523
0.02273006
0.03726146
0.05258461
0.06822934
0.0830109
0.003673617
0.02330596
0.03814894
0.05382552
0.0699651
0.08507984
0.003764663
0.02392249
0.03908945
0.05514985
0.07176132
0.08732275
0.003860855
0.02457985
0.04009228
0.05656793
0.07366184
0.0895265
0.003960284
0.02526958
0.04115359
0.05807108
0.0756999
0.09174268
0.004056935
0.02600165
0.04230781
0.05968663
0.07789093
0.09407415
0.02323928
0.03499812
0.05225035
0.06404529
0.07853373
0.08913067
0.005268556
0.02005333
0.02951865
0.04317835
0.05425727
0.06660571
0.003407037
0.01964003
0.02986451
0.04331574
0.05474242
0.06694125
0.002750589
0.0201446
0.02955605
0.04427155
0.05495453
0.06745866
0.002744634
0.01954046
0.02973461
0.04420606
0.05558611
0.06793805
0.002717991
0.02044357
0.02997233
0.0449704
0.05606419
0.06860348
0.002761294
0.02043427
0.03020246
0.04511512
0.05653267
0.06910486
0.002780007
0.02092737
0.03056718
0.0457597
0.05716008
0.06987368
0.00278969
0.02115302
0.03086791
0.04614523
0.05772882
0.0705595
0.002816007
0.02154133
0.03129375
0.04675336
0.05845666
0.07143008
0.002858502
0.02187512
0.03170862
0.04731328
0.05918531
0.07231185
0.00290601
0.02227101
0.03219935
0.04797278
0.06002483
0.07331174
0.002956881
0.0226694
0.03271076
0.0486617
0.06089292
0.07435978
0.00300982
0.02309393
0.03327957
0.04943154
0.0618681
0.07562095
0.00306371
0.02354924
0.03388263
0.05022697
0.06286092
0.07677602
0.003121707
0.02404554
0.03454125
0.05112511
0.06403632
0.07827028
0.003183699
0.02456185
0.03522917
0.05208596
0.06516549
0.07991699
0.003248998
0.02510396
0.03594883
0.05311706
0.06640457
0.08146338
0.003319449
0.02569381
0.03673955
0.05432678
0.06797827
0.08395622
0.00339255
0.02630054
0.03753258
0.05546107
0.06966383
0.08554435
0.003475147
0.02697463
0.03839238
0.05671131
0.07131228
0.08653366
0.003562525
0.0276825
0.0392729
0.05820654
0.07297119
0.08848044
0.00366543
0.02854136
0.04028101
0.06020129
0.0746323
0.09091681
0.007450893
0.0293654
0.04119823
0.0620468
0.07620741
0.09296846
0.01696606
0.0311311
0.04519098
0.05785294
0.07003375
0.08161034
0.001354375
0.01414391
0.0311507
0.04551609
0.05943159
0.07122812
0.08335697
0.001308789
0.01225752
0.03356404
0.05079373
0.06781033
0.08052935
0.09263211
0.001211972
0.01192137
0.03254185
0.05192781
0.06923768
0.08226042
0.09445719
0.001228845
0.01224783
0.0311111
0.05226038
0.06969216
0.08298079
0.09543571
0.001217165
0.01184335
0.03153285
0.05320541
0.07041108
0.08381003
0.09631964
0.0012102
0.01163039
0.03167471
0.05392753
0.07115388
0.08459592
0.09725139
0.001211258
0.01150869
0.0320712
0.05471706
0.07197157
0.08556703
0.09826506
0.001217671
0.01140597
0.03247417
0.05542716
0.07278086
0.08651276
0.0993325
0.001229004
0.01136402
0.03294495
0.05621962
0.07369029
0.08756128
0.1005294
0.001241247
0.0113356
0.03345287
0.0570331
0.07464336
0.08867123
0.1018015
0.001252568
0.0113374
0.03400852
0.05791691
0.07568083
0.08987654
0.1031905
0.001266847
0.01137255
0.03462101
0.05882379
0.0767931
0.09114379
0.1046496
0.0012843
0.01144398
0.03529201
0.05979086
0.07799754
0.0925194
0.1060928
0.001304436
0.01154716
0.03603072
0.06079377
0.07925836
0.09393377
0.1080219
0.001325828
0.01167039
0.03682308
0.06184543
0.08062097
0.09535827
0.11185
0.001351315
0.01183966
0.03764827
0.06295503
0.08201317
0.09707714
0.1165983
0.00138079
0.01206877
0.03847826
0.06408274
0.08347826
0.09901935
0.1225287
0.001417576
0.01234919
0.03933046
0.06525797
0.08503374
0.1028185
0.1252703
0.001459994
0.01266902
0.04018673
0.06642518
0.08631457
0.1082501
0.1262774
0.001505697
0.01300785
0.0410247
0.06761121
0.0880715
0.1148844
0.1259849
0.001554787
0.01337611
0.04182881
0.06880606
0.09019496
0.1183104
0.128353
0.001609329
0.01378284
0.04262317
0.06990443
0.09284258
0.1208667
0.1310576
0.001674364
0.02800997
0.04336459
0.07085186
0.09675122
0.1225188
0.133696
0.006075474
0.002525729
0.002706695
0.01113945
0.002422092
0.009963535
0.001308112
0.007788168
0.001377084
0.01070484
0.009581161
0.00940594
0.001305923
0.008248307
0.001241811
0.01027147
0.01109346
0.009521482
0.001211191
0.008359969
0.001268544
0.01043874
0.01157824
0.008985085
0.00122819
0.008170961
0.001262929
0.01020278
0.01176278
0.008776796
0.001217255
0.00810126
0.001268264
0.01012916
0.01186042
0.008538379
0.001210309
0.007982373
0.001270528
0.01007338
0.01199046
0.008386519
0.001210958
0.007920772
0.00127905
0.01005372
0.01215199
0.00825342
0.001217582
0.0078741
0.001288493
0.01003875
0.01235631
0.008181652
0.001228955
0.007865153
0.001300803
0.01004294
0.01261109
0.008180094
0.001241031
0.007882753
0.001311811
0.01006803
0.01291729
0.008251435
0.001251725
0.007932319
0.001325596
0.01011659
0.01327316
0.00838727
0.001266825
0.008013881
0.001340947
0.01018923
0.01366889
0.008575467
0.001284319
0.008135243
0.001360167
0.01029233
0.01408482
0.008818065
0.001304885
0.008296311
0.00138191
0.01041055
0.0145631
0.00912251
0.001325712
0.008412192
0.001405687
0.01054827
0.01509658
0.009471737
0.001351548
0.008522769
0.001430954
0.01070309
0.01566567
0.009844665
0.001381206
0.008647259
0.00145717
0.01088503
0.01623827
0.010235
0.001415966
0.008765511
0.001487002
0.01111736
0.01673576
0.01064593
0.001459055
0.008965123
0.001519817
0.01139886
0.0172343
0.01109794
0.00150583
0.009194556
0.001555516
0.01172598
0.01776225
0.01160819
0.001557347
0.009479654
0.001596479
0.01209975
0.01836995
0.01218853
0.001615893
0.009792935
0.001645226
0.01251596
0.01901653
0.01295855
0.001685891
0.01015267
0.001692315
0.01293346
-0.001376057
0.001014856
0.01231336
0.002467201
0.001629791
0.01263127
0.002888134
0.001400481
0.01254342
0.004059038
0.001444128
0.01291324
0.003693332
0.001375747
0.01281988
0.002439939
0.001390874
0.01332211
0.004279562
0.001380591
0.01338699
0.002851979
0.001493623
0.01357015
0.004275453
0.001465583
0.01388362
0.003285978
0.001562172
0.01355593
0.004157387
0.001454566
0.01379213
0.001821097
0.001475446
0.01309012
0.004293708
0.001469771
0.01329213
0.002907193
0.001317367
0.01269762
0.002504307
0.001491485
0.01246818
-0.0009775279
0.001136143
0.01237028
0.002472954
0.002933017
0.01132339
0.006102927
0.007822229
0.001378349
0.01076548
0.002464084
0.01002964
0.008271557
0.00124377
0.01029383
0.009633242
0.009446087
0.008372178
0.001268516
0.01044484
0.01112586
0.009536582
0.007980319
0.001270263
0.01006599
0.0118634
0.008534132
0.007916941
0.001278773
0.01004632
0.01199227
0.008382403
0.007870131
0.001288228
0.01003118
0.01215454
0.00824882
0.007860787
0.001300526
0.01003322
0.01236054
0.008175257
0.007879954
0.001312038
0.01006099
0.01261637
0.008181149
0.007936812
0.001325872
0.01012657
0.01292068
0.008257904
0.008011684
0.001340856
0.01018744
0.01327544
0.008389567
0.008131484
0.001359896
0.01028504
0.01367111
0.008575364
0.008291933
0.001380865
0.01039808
0.01408537
0.008812967
0.008404228
0.001405155
0.01053685
0.01456492
0.009121736
0.008515745
0.001430393
0.01069167
0.01509717
0.009471291
0.008635188
0.00145689
0.01087399
0.0156678
0.009845709
0.008763726
0.001486636
0.01112233
0.0162361
0.01023462
0.008967862
0.00151905
0.01140844
0.01671919
0.01063764
0.009454022
0.001591804
0.01208
0.01771436
0.01157044
0.009732032
0.001636346
0.01244947
0.0183034
0.01212319
0.01003735
0.001678114
0.01282391
0.0189269
0.01289611
0.002341871
0.001657498
0.01274985
0.01641988
0.01684391
0.01414852
0.01588244
0.01865731
0.02888465
0.02927795
0.03100491
0.02669578
0.03177432
0.02728516
0.04198658
0.04154981
0.04505923
0.03814531
0.04652174
0.03681658
0.05579482
0.05340589
0.05770504
0.04972618
0.06079088
0.04813992
0.06793747
0.06524162
0.069804
0.06168377
0.07293498
0.06013666
0.0797864
0.08170116
0.08492803
0.003223835
0.00692153
0.002396252
0.008009661
0.003633152
0.008712473
0.002997214
0.008415506
0.003808328
0.008695691
0.002865133
0.008472724
0.003860302
0.008759383
0.003009835
0.008705747
0.003895147
0.008915445
0.003034698
0.008901403
0.003920722
0.009060071
0.002971166
0.009067616
0.003979378
0.00923753
0.002941624
0.009294886
0.004043336
0.009451131
0.002926321
0.00958767
0.004122751
0.009720002
0.002934209
0.009973277
0.004207102
0.01004345
0.002956239
0.01046583
0.00428801
0.01045803
0.002989574
0.01111803
0.004367927
0.01098049
0.003038516
0.01194109
0.004450525
0.01166454
0.003095448
0.012873
0.00453275
0.01252925
0.003152488
0.01397433
0.004626964
0.01361251
0.003207318
0.01524345
0.00473494
0.01486887
0.003260076
0.01662372
0.004861872
0.01624924
0.003338128
0.01824029
0.005020833
0.01782159
0.003460214
0.02009605
0.005236058
0.0196123
0.00365478
0.02181108
0.005487917
0.02162917
0.003819303
0.02341349
0.005767804
0.02349259
0.003943644
0.02515797
0.006027631
0.02497102
0.004000684
0.02731934
0.006286638
0.02640919
0.004179741
0.02972613
-0.005253861
-0.006501963
-0.008357314
-0.008551863
-0.006668452
-0.008620254
-0.007399516
-0.006522399
-0.00410886
-0.008147944
-0.007355315
-0.008214802
-0.008745857
-0.007235386
-0.007720614
-0.007665007
-0.00283492
-0.001685457
0.01426675
0.01605644
0.01878223
0.01284423
0.01652915
0.02684133
0.03191373
0.02741145
0.02899201
0.02939867
0.03827486
0.04667775
0.03696363
0.04211631
0.04169039
0.049969
0.06093382
0.04836343
0.05594407
0.05356719
0.06166739
0.07314746
0.06013376
0.06808615
0.06526896
0.08487775
0.07979765
0.008175904
0.001262609
0.01019626
0.01159766
0.008991913
0.008104358
0.001267344
0.01012289
0.01176488
0.008774218
0.009188687
0.001553493
0.01172688
0.01720485
0.01107844
0.008784384
0.006669481
0.004399686
0.006513582
0.00437559
0.006535297
0.003338651
0.0002115656
-0.002613688
-0.001796041
0.002738446
0.008699731
0.00341208
0.008078568
0.003011847
0.008474556
0.003846563
0.008632537
0.002966771
0.008598858
0.003914979
0.008559123
0.003069184
0.008853413
0.003982629
0.008699149
0.00300538
0.009001018
0.004015969
0.008919104
0.00291477
0.009200349
0.004075043
0.009107473
0.002857419
0.009459272
0.004144377
0.00932268
0.002821509
0.009810557
0.004223782
0.009580267
0.002804909
0.0102585
0.004310901
0.009920546
0.002806761
0.01081648
0.004393641
0.01032536
0.00282186
0.01151962
0.004472447
0.01085688
0.002853045
0.01241169
0.004548518
0.01152854
0.002885822
0.01344176
0.004627312
0.01238057
0.002911079
0.01462248
0.004712737
0.01349609
0.002948601
0.01594614
0.004812817
0.01482213
0.003007902
0.01745053
0.004931368
0.01636272
0.003089183
0.01915722
0.005069966
0.01829791
0.003188749
0.02110324
0.005240687
0.02070522
0.003367416
0.02325352
0.005435772
0.02260884
0.003546622
0.02570638
0.005653073
0.02427133
0.003716695
0.02739146
0.005927558
0.02603959
0.003729051
0.02910914
0.006225387
0.02831158
0.003710715
0.003555794
0.03075532
0.006514535
-0.008730471
-0.007650978
-0.007824577
-0.007114104
-0.008440943
-0.008363457
-0.00731449
-0.005689389
-0.007932731
-0.006693906
-0.007859483
-0.009076542
-0.00830058
-0.008228148
-0.004839657
-0.005709492
0.002407837
0.001747189
0.008867223
0.006702205
0.004363826
0.006634616
0.004370637
0.00659025
0.003308821
0.0003258229
0.00321218
0.006995038
0.002434608
0.008048711
0.00275478
0.008721031
0.003423501
0.008110545
0.00364266
0.008730828
0.003010061
0.008429913
0.003026089
0.008485302
0.003852807
0.008646147
0.003808325
0.008704033
0.002879742
0.00847883
0.003922537
0.009060847
0.002968423
0.00906964
0.002918255
0.009206277
0.004076305
0.009106304
0.003980731
0.009242491
0.002946627
0.009300664
0.002862617
0.009466393
0.004145462
0.009325394
0.004044192
0.009456311
0.002930583
0.009595053
0.00282626
0.009819525
0.004224424
0.009584165
0.004123062
0.009726786
0.002939129
0.009984089
0.002811011
0.01027341
0.00431101
0.009925227
0.004207276
0.01005188
0.002962443
0.01047598
0.002812208
0.01083626
0.004397254
0.01032404
0.004367335
0.0110012
0.003038895
0.01197266
0.002853444
0.01243338
0.004547792
0.01155014
0.004449517
0.01168153
0.003096972
0.01289904
0.00288794
0.01347522
0.004625961
0.01239943
0.004628644
0.01363222
0.003207638
0.01526248
0.002949193
0.01597414
0.004812405
0.01484136
0.003008508
0.01748345
0.004930939
0.01639772
0.004862778
0.01628457
0.003338534
0.01827015
0.003094435
0.01919321
0.005071976
0.01832071
0.0050317
0.01782763
0.003472468
0.02016944
0.006001141
0.02501147
0.003954706
0.02745448
0.003689325
0.02913631
0.006208033
0.02841234
0.006271269
0.02644208
0.00414038
0.02962253
0.003660395
0.008844683
0.03077823
0.006488112
-0.0003074821
0.005485351
0.001354525
-0.0005126708
0.0002370264
-0.001727734
-0.0005241447
-0.0009715458
0.000730237
-0.0009571146
-0.0002275415
-0.001151492
-0.00167603
-0.0002647272
-0.0003840119
-6.678366e-07
0.0001981663
6.829769e-05
0.0007148895
0.0002807976
-0.0004464311
0.001490139
-0.0004950917
-0.0001761052
-0.0003507646
0.0009537607
1.124616e-05
-0.001056289
-0.001230095
0.001399482
-0.0002448404
-0.0006441304
-0.00106327
-0.0009146243
-0.0005993763
-4.791413e-05
0.0002739424
0.0008866553
-0.0002915256
0.005307334
0.01158849
0.00560744
0.006356419
0.01304605
0.0007168766
0.005252698
0.001346232
0.003868993
0.001329787
0.005158417
0.005796795
0.001307381
0.001406586
0.005675162
0.001443157
0.005670728
0.00145452
0.00574563
0.005748394
0.001420506
0.002991923
0.00859773
0.003901796
0.008565141
0.001507182
0.005859739
0.001458074
0.005878365
0.001439554
0.005888131
0.001490412
0.005957621
0.001526316
0.005961784
0.005962812
0.00147273
0.00145176
0.005986418
0.001506928
0.006058902
0.0015499
0.006069934
0.006054977
0.001492619
0.001486696
0.006240971
0.001553172
0.006311545
0.001608463
0.006338385
0.006300274
0.00155314
0.004303206
0.01046489
0.002990398
0.01114723
0.002833788
0.01155098
0.004472917
0.01090551
0.001684048
0.006679554
0.006610286
0.001638075
0.001580201
0.006771329
0.001656963
0.006834739
0.001728893
0.006868929
0.006764347
0.001687018
0.001623629
0.006980068
0.001699965
0.007040112
0.004532185
0.01255662
0.003155235
0.01400564
0.002919166
0.014651
0.004706134
0.01354114
0.001831498
0.007282756
0.007074741
0.001794746
0.001724266
0.007434016
0.001809339
0.007486356
0.004734281
0.01489752
0.003259065
0.01665756
0.003206023
0.02124394
0.005247029
0.0209054
0.005243242
0.019726
0.003647218
0.02186371
0.003383727
0.0234337
0.005440404
0.0226772
0.005761134
0.02351955
0.003916425
0.02527949
0.003710505
0.02741476
0.00592529
0.02613409
0.002406229
0.009305579
0.008534167
0.002353893
0.002405801
0.009646874
0.002401364
0.009397544
0.002537007
0.009594931
0.008727261
0.002457681
0.002534609
0.009973718
0.009696665
0.002518045
0.001517592
-0.0005243323
0.0001538154
0.0005190603
-0.001667824
-0.0002609237
0.001398513
-0.0007000436
-0.0008634512
-0.0001592866
0.0002403805
0.0002414782
0.0003653284
-0.0009481012
-0.001660437
-1.098355e-05
-0.0002291769
-0.0001033419
-0.0008076474
0.0001425462
0.01370579
0.01646487
0.01413494
0.01089326
0.01983389
0.02082611
0.02419796
0.01646725
0.02750962
0.02834622
0.02528897
0.03106331
0.03341547
0.03482268
0.03874149
0.03034728
0.04127827
0.04195468
0.03925248
0.04533911
0.04635656
0.04834097
0.05241413
0.0432841
0.05425224
0.05455042
0.05186098
0.05820858
0.05840767
0.06073941
0.06463053
0.05529805
0.06629581
0.06643137
0.0638298
0.07020743
0.07010263
0.07257019
0.07640706
0.06705527
0.07801008
0.07559485
0.08189106
0.008760298
0.003007269
0.008700994
0.003855553
0.008852748
0.008686652
0.003067474
0.003975594
0.00891541
0.008901714
0.00389395
0.003033556
0.008995612
0.004010012
0.008923685
0.003011602
0.02177804
0.003808921
0.02347286
0.005494088
0.0257808
0.005658581
0.02432962
0.003559724
-0.000651117
0.0001429426
0.0005230832
-0.001231784
-0.000115272
-0.0003563459
-0.001465552
0.000574033
-0.0001984451
-0.000387893
-0.001079828
-0.0002963458
-0.000894419
-0.0005971039
0.0006075563
-0.0009746858
0.0002070509
0.0005083664
0.001431453
-0.0007030492
0.005237613
0.0002974475
0.003604372
0.001565661
-0.003331505
0.003597513
-0.0002225222
0.0003849865
0.005577868
0.01075588
0.009311464
0.005937237
0.0003918067
0.002704828
-0.0002666468
0.004432984
0.001341105
0.00553225
0.005369943
0.001269526
0.001423032
0.00575172
0.005772394
0.001424476
0.001477776
0.005799605
0.001471828
0.005789947
0.001404918
0.005680377
0.005728393
0.001417494
0.001412494
0.005860636
0.005913223
0.00146336
0.001550231
0.005896179
0.001469116
0.005978738
0.001420622
0.005939121
0.00600355
0.001479777
0.0015681
0.005979508
0.001477103
0.006062074
0.001432724
0.006034934
0.0061083
0.001501449
0.001591685
0.006075591
0.001490434
0.006160087
0.001467054
0.006288111
0.006372863
0.001556047
0.001651663
0.006334089
0.001535475
0.006408182
0.001515704
0.006623741
0.006711175
0.001625086
0.001731591
0.006675204
0.001602692
0.006718951
0.0015488
0.006809959
0.006902461
0.001665833
0.001780411
0.00687895
0.001641909
0.006883272
0.001633345
0.007260088
0.007331475
0.00175995
0.00189001
0.007323212
0.001726118
0.007220694
0.001953725
0.007569639
0.001777624
0.007397886
0.002233187
0.009326784
0.009107129
0.002378185
0.002560593
0.00950727
0.00223884
0.008816231
0.002355689
0.009691
0.009399587
0.00251328
0.002694821
0.009899822
0.002361506
0.009120618
0.001737137
0.009088545
0.001751862
0.01053511
0.01036917
0.009041203
0.003721203
0.004397825
0.008184786
0.004334046
0.002652771
0.009878176
0.00890241
0.00258216
0.0136469
0.01640941
0.01085158
0.0140558
0.02516369
0.02739605
0.0309455
0.02824612
0.03909989