/*--------------------------------*- C++ -*----------------------------------*\
  =========                 |
  \\      /  F ield         | OpenFOAM: The Open Source CFD Toolbox
   \\    /   O peration     | Website:  https://openfoam.org
    \\  /    A nd           | Version:  7
     \\/     M anipulation  |
\*---------------------------------------------------------------------------*/
FoamFile
{
    version     2.0;
    format      ascii;
    class       surfaceScalarField;
    location    "0.08";
    object      phi;
}
// * * * * * * * * * * * * * * * * * * * * * * * * * * * * * * * * * * * * * //

dimensions      [0 3 -1 0 0 0 0];

internalField   nonuniform List<scalar> 
270789
(
-0.06632395
7.619755e-05
-0.002972975
0.001349672
-0.002409763
0.000515368
-0.0003561657
0.01583342
0.01629336
0.01907796
0.01891687
-0.06557242
-9.852934e-05
-0.0005295152
0.002239733
-0.002327529
0.0003484333
-0.0003841201
-0.06531775
-0.0004671786
-0.0002097513
0.002445444
-0.002236033
0.0005055821
-0.0002927321
-0.06501262
-0.0005815311
-8.042845e-05
0.002415036
-0.002231607
0.0004738957
-0.0003004927
-0.06463132
-0.0008742088
-6.844914e-05
0.002460089
-0.002173673
0.000527301
-0.000252359
-0.001222217
-7.69531e-05
0.002474811
-0.002116028
0.0005602601
-0.000207568
-0.06404362
-0.06610936
-0.0002603014
-0.0042093
0.01639308
0.01635888
0.01899016
0.01891304
-0.06464288
-0.0002538258
-0.001311188
-0.06438554
-0.0005108921
-0.0002136265
-0.06411698
-0.0007143617
-0.0001357231
-0.06380683
-0.001159855
-2.450029e-05
-0.001665575
-4.133115e-05
-0.06332214
-0.06591078
-0.0001178359
-0.004874857
0.01640722
0.0163849
0.01894039
0.01891067
-0.0644963
-0.0001933508
-0.001474956
-0.06419484
-0.0004526386
-0.0003597163
-0.06401612
-0.0007529305
-0.0001401498
-0.06383548
-0.001296109
-4.43804e-05
-0.001974439
-2.271716e-05
-0.0635039
-0.06590657
3.764979e-05
-0.004918074
0.01640376
0.01640179
0.01893618
0.01892743
-0.06445747
-2.475484e-05
-0.001617694
-0.06425257
-0.0002752632
-0.0003822839
-0.06418967
-0.0006395317
-0.0001762897
-0.06418023
-0.001263197
-4.235429e-05
-0.002089168
-2.104491e-05
-0.06404445
-0.0659444
0.0002536311
-0.005000655
0.01641522
0.0164215
0.01894724
0.01894512
-0.06460422
0.0002721145
-0.001637051
-0.06452775
5.834303e-05
-0.0004100729
-0.06466709
-0.0003204616
-0.0001797323
-0.06488235
-0.0009988269
-4.910604e-05
-0.001952525
-1.519856e-05
-0.0650038
-0.06598919
0.0005888733
-0.005028723
0.0163875
0.01641868
0.01893807
0.01893843
-0.06478505
0.0007216856
-0.001653712
-0.06491455
0.0006071434
-0.0004193013
-0.06529735
0.0002543589
-0.000192019
-0.06580562
-0.0004391783
-5.137969e-05
-0.001491793
-1.757064e-05
-0.06624878
-0.06591584
0.001067701
-0.005056007
0.01631067
0.01638468
0.01889931
0.01889835
-0.06491251
0.001370169
-0.001651814
-0.06529742
0.001417787
-0.0004257285
-0.06600277
0.001152651
-0.0001929388
-0.06687521
0.0004857522
-5.249327e-05
-0.0006299875
-1.600751e-05
-0.06772101
-0.0656591
0.001696644
-0.005044916
0.01618448
0.01629462
0.01880388
0.0187921
-0.06490042
0.002256403
-0.001644915
-0.06560278
0.002548256
-0.000428106
-0.06670421
0.0024486
-0.0001945171
-0.06803424
0.001868555
-5.277808e-05
0.0007298189
-1.494438e-05
-0.0693791
-0.06512145
0.002501948
-0.005016714
0.01597792
0.01613052
0.01863532
0.0185891
-0.06467001
0.003433077
-0.001628119
-0.0657496
0.004053818
-0.000425969
-0.0673347
0.004223518
-0.0001898179
-0.06923204
0.003817369
-5.146958e-05
0.002709832
-1.298221e-05
-0.07119907
-0.06420412
0.003503928
-0.004950809
0.01566737
0.01586918
0.01834992
0.01826648
-0.0641153
0.004950325
-0.001606061
-0.06565148
0.006009054
-0.0004190634
-0.06781469
0.006563837
-0.0001771032
-0.07040359
0.006446631
-4.036203e-05
0.005461619
-4.61391e-06
-0.07315076
-0.0627737
0.004732935
-0.004831248
0.01521621
0.01548382
0.01788195
0.01779396
-0.06310413
0.00685847
-0.001577707
-0.06519159
0.008506299
-0.0004097935
-0.06806065
0.009596804
-0.0001638998
-0.07150314
0.009914612
-2.548729e-05
0.009193724
5.901027e-06
-0.07524115
-0.06068858
0.00619249
-0.004648565
0.01460168
0.01493699
0.0172065
0.01713242
-0.06148512
0.009186844
-0.001531831
-0.06420616
0.01161449
-0.0003871537
-0.06790845
0.01343225
-0.000133152
-0.07238583
0.01437147
2.051926e-05
0.01408816
6.618283e-05
-0.07734645
-0.05773544
0.007890333
-0.004402484
0.01377138
0.01417414
0.01628157
0.01621299
-0.05906262
0.01198988
-0.001475864
-0.06251862
0.01544261
-0.0003721212
-0.06723118
0.01826778
-0.0001229622
-0.07303568
0.02013989
3.606462e-05
0.02059046
9.15892e-05
-0.07962957
-0.05375396
0.009789392
-0.004068481
0.01269316
0.01315558
0.0150721
0.01500254
-0.05561554
0.01520845
-0.001356991
-0.05982144
0.01996881
-0.0003203071
-0.06562814
0.02411954
-4.505787e-05
-0.07295872
0.0273127
0.0001577609
0.02888756
0.000301091
-0.08155692
-0.04846459
0.01190684
-0.00363211
0.01128794
0.0117979
0.01348179
0.01341161
-0.05085969
0.01885817
-0.001254612
-0.05587465
0.02532397
-0.0003402062
-0.06294425
0.03131913
-0.0001300006
-0.07221979
0.03654832
3.991168e-05
0.04012508
0.0001843869
-0.08364171
-0.04178668
0.01414008
-0.003094224
0.009562687
0.01011081
0.01151863
0.01145553
-0.04459948
0.02270686
-0.001035892
-0.05016838
0.03121701
-0.0003241367
-0.05829751
0.03955131
-0.0001030558
-0.06950563
0.04759823
0.0001582045
0.05420471
0.000605539
-0.0841908
-0.03319572
0.01636448
-0.002338314
0.007382101
0.007916332
0.009014725
0.008996486
-0.03635171
0.02714565
-0.001282798
-0.04226725
0.03819339
-0.001060843
-0.05115752
0.04976659
-0.001325027
-0.06430186
0.0621851
-0.001442521
0.07470543
-0.001329729
-0.08347287
-0.02255327
0.004377793
-0.002340312
0.004813322
0.00493729
0.006114899
0.006100799
0.004057667
0.005348254
0.005508036
-0.02561158
0.007859941
-0.002650449
0.007002549
0.008923769
0.009068147
-0.03082112
0.01123007
-0.00379562
0.01012906
0.01281335
0.01302607
-0.03908244
0.01490598
-0.004907985
0.01352112
0.01709174
0.01741705
-0.05218645
0.01925516
-0.00611582
0.01743436
0.02212015
0.02259524
0.02437584
-0.006988511
0.02191549
0.02798994
0.02862951
-0.07340329
0.003183351
-0.003088109
-0.0004469287
0.001111436
0.001312522
0.001320204
0.0009853173
0.003999089
-0.003646886
-0.0006495586
0.002262903
0.001899829
0.002246804
0.001747761
0.004692475
-0.004420403
-0.0008975557
0.003278748
0.002753878
0.003261977
0.002560952
0.005825322
-0.005713118
-0.001171654
0.004407516
0.003703173
0.004403507
0.003451231
0.007748766
-0.007855403
-0.001516065
0.005757699
0.004847213
0.005773029
0.004499921
0.01086315
-0.01144284
-0.001913768
0.007414179
0.006251355
0.007448215
0.005755536
0.0161586
-0.00232435
0.008014814
0.009504277
-0.03024935
-0.01784456
0.00947721
0.007263344
2.430765e-05
-0.0002291784
-1.816208e-05
-3.087499e-05
3.943515e-05
-0.0004158265
-3.017591e-05
-5.949402e-05
6.249416e-05
-0.0006219237
-4.812405e-05
-9.330704e-05
9.603701e-05
-0.0008554924
-7.62572e-05
-0.0001318761
0.0001503953
-0.001137412
-0.0001248224
-0.0001741132
0.0002441666
-0.0014925
-0.0002118862
-0.0002233512
0.000428967
-0.001962282
-0.0003880989
-0.000284128
3.204094e-05
-0.0003778112
0.0005670078
-1.992617e-05
6.820749e-05
5.16804e-05
6.597026e-05
-0.0003871694
7.681573e-06
-0.0007766505
0.0009687525
-8.305707e-06
6.773428e-05
3.555011e-05
5.084745e-05
-0.0003456096
-9.600743e-06
-0.001209471
0.001411734
1.755784e-05
6.649027e-05
2.613182e-05
3.585479e-05
-0.0003386971
-1.718462e-05
-0.001674724
0.001919312
-1.362084e-05
8.050309e-05
2.987402e-05
3.476965e-05
-0.0003589297
-2.291259e-05
-0.002161421
0.002401536
1.699226e-05
9.38311e-05
3.79329e-05
3.599236e-05
-0.0004019504
-1.907668e-05
-0.002679066
0.002980944
5.382955e-06
0.0001193268
5.819487e-05
4.749971e-05
-0.0005132059
-9.425621e-06
-0.003300883
2.954986e-05
9.018598e-05
0.003662534
0.0001527365
6.503729e-05
-0.0006897345
0.0002445394
0.003346884
-0.01506849
-0.0002471231
7.995998e-05
-0.000491271
5.022865e-05
-2.79305e-05
0.004295019
0.003530924
0.004287256
0.0005127071
0.01506643
-0.01480557
-0.0001397706
-0.0001342
-0.0004848563
4.534662e-05
-6.009418e-05
0.0005061011
0.01502235
-0.01467513
-0.0001648173
-0.0001513921
-0.0004926616
2.828513e-05
-7.273298e-05
0.0005131899
0.01478295
-0.01443521
-0.0001550318
-0.0001987807
-0.0004829102
4.014874e-05
-6.435522e-05
0.0005152915
0.01455924
-0.01422191
-0.0001738775
-0.0001910453
-0.0004746954
4.636835e-05
-5.937211e-05
0.0005126561
0.01434138
-0.01399456
-0.0001863724
-0.0001970373
-0.0004680843
4.971857e-05
-5.770719e-05
0.0005077417
0.01409585
-0.000213832
-0.0001937445
5.143864e-05
-0.01372867
-0.0004610967
-5.769339e-05
0.0004750064
0.0005618613
-0.01805509
-0.0004183254
-0.0004326229
-5.277513e-06
0.0008246111
7.383899e-07
6.544967e-05
0.0009145737
4.976709e-05
-0.07381387
-0.0003152138
-0.001551867
0.0001633719
-0.0001375137
-0.0001617175
-0.000437466
0.01832851
0.01861156
0.01810984
0.01823139
-0.07387859
-0.0005180125
-0.0001969742
0.0002398258
-0.0001029852
0.0001990976
-8.575041e-05
-0.07372992
-0.0006860295
-0.0002877046
0.000364138
-4.454257e-05
0.0002882685
7.449757e-06
-0.07341821
-0.0007544202
-0.0001054895
0.0002870247
-6.175667e-05
0.0002394736
3.034707e-06
-0.07298089
-0.001055713
-6.627558e-05
0.0003353782
-1.564248e-05
0.0002531665
4.331663e-05
-0.001434783
-5.304116e-05
0.00036237
2.306307e-05
0.0002816017
8.89057e-05
-0.07232596
0.0009413783
0.0001851469
-0.017782
-7.121725e-05
-0.00101085
-1.270887e-05
0.0009520313
-1.189995e-05
-0.07553497
-0.0001238022
-0.002081977
0.01846313
0.01846394
0.01817453
0.01811464
-0.07529268
-0.0003170897
-0.001754402
-0.07503251
-0.0006419477
-0.0005178831
-0.07469022
-0.0008730849
-0.0003593404
-0.07428302
-0.001374142
-0.0001132735
-0.001942359
-0.0001050537
-0.07371172
0.0009630869
-8.082826e-06
-0.01787227
1.966775e-05
-0.00136264
-1.822919e-06
0.0009711201
-6.44133e-06
-0.07559565
-0.0001157379
-0.002769369
0.01854427
0.01853054
0.01820998
0.01819731
-0.07522871
-0.0002636865
-0.001895298
-0.07489876
-0.0005678926
-0.0007637246
-0.07465764
-0.0008996676
-0.0003546864
-0.07441038
-0.001542843
-0.0001229437
-0.002307631
-5.377978e-05
-0.07401404
0.0009638924
-9.977134e-06
-0.01784556
1.806355e-05
-0.001406952
-3.820111e-06
0.0009693686
-8.681303e-06
-0.07571758
8.014219e-05
-0.002885701
0.01854228
0.01853642
0.01820984
0.01820078
-0.07525287
-4.439087e-05
-0.002301693
-0.07498391
-0.0003384487
-0.0008806906
-0.07485099
-0.0007372432
-0.0004716322
-0.07479102
-0.001499907
-0.0001452588
-0.002431517
-6.405732e-05
-0.07462412
0.0009623318
-2.233984e-05
-0.01786215
3.008749e-05
-0.00139553
-6.430366e-06
0.0009686786
-1.145443e-05
-0.07574739
0.000320002
-0.003026636
0.01856133
0.01855068
0.01821331
0.01820819
-0.07539833
0.0003034145
-0.002333914
-0.07524818
5.21165e-05
-0.0009507837
-0.07533546
-0.0003533389
-0.0004763516
-0.07554119
-0.001189903
-0.0001533807
-0.002268825
-4.452943e-05
-0.07567455
0.0009591736
-3.437985e-05
-0.01782543
4.881774e-05
-0.001394533
-9.440283e-06
0.0009671453
-1.417649e-05
-0.07578242
0.0006980903
-0.003068474
0.01853824
0.01852671
0.01819853
0.0181806
-0.07556604
0.0008298796
-0.002396553
-0.07565297
0.000702233
-0.0009824931
-0.07600765
0.0003226669
-0.0005133414
-0.07655761
-0.0005292277
-0.0001620948
-0.001727011
-4.843063e-05
-0.07706856
0.0009537594
-5.907253e-05
-0.01775323
7.837245e-05
-0.001388178
-1.321163e-05
0.0009644663
-1.744287e-05
-0.07567806
0.001216919
-0.003085962
0.01847945
0.01846218
0.01813696
0.01811059
-0.07567582
0.00158055
-0.00240473
-0.07606045
0.001656031
-0.0009948946
-0.0767835
0.001369423
-0.0005166386
-0.07776117
0.0005596113
-0.0001636595
-0.0007185466
-4.185048e-05
-0.07874379
0.0009450472
-9.477607e-05
-0.01762052
0.00012073
-0.001379449
-1.718429e-05
0.0009587034
-2.111976e-05
-0.07537198
0.001924065
-0.003056755
0.01836045
0.0183279
0.01801682
0.0179715
-0.07562907
0.002606757
-0.00241404
-0.07639084
0.002986798
-0.0009970988
-0.07756695
0.002873759
-0.0005227351
-0.07907777
0.002181548
-0.000163891
0.0008716862
-3.73844e-05
-0.08064557
0.0009320873
-0.0001414409
-0.01740724
0.0001734758
-0.001364939
-2.200533e-05
0.0009488868
-2.569009e-05
-0.07474091
0.002852903
-0.003016366
0.01815811
0.01809827
0.0178155
0.01773984
-0.07532634
0.003966305
-0.002402238
-0.07654413
0.004769152
-0.0009905348
-0.07828184
0.004939462
-0.0005178007
-0.08044802
0.004456126
-0.0001598731
0.003181694
-3.010175e-05
-0.0827409
0.0009149512
-0.0001957503
-0.01708796
0.0002334835
-0.001346158
-2.631435e-05
0.0009346942
-2.997863e-05
-0.07366116
0.00401408
-0.002956493
0.01784253
0.01775361
0.01750798
0.01740154
-0.07465148
0.005720486
-0.002369919
-0.07641199
0.00708569
-0.0009750912
-0.07883012
0.007682612
-0.0005021251
-0.08179976
0.007528485
-0.0001430791
0.006382562
-9.522183e-06
-0.08499571
0.0008920582
-0.0002601797
-0.01662666
0.0003035537
-0.001322026
-2.915603e-05
0.0009150827
-3.298131e-05
-0.0719923
0.005430049
-0.002865747
0.01737683
0.01725652
0.01705444
0.01692303
-0.07346009
0.007929252
-0.002318683
-0.07586776
0.0100368
-0.0009532419
-0.07911462
0.01125006
-0.0004844815
-0.08308539
0.01159916
-0.0001253879
0.01072412
1.028054e-05
-0.08743132
0.0008606521
-0.0003356443
-0.01598663
0.0003843693
-0.001288369
-3.137597e-05
0.0008867318
-3.549117e-05
-0.06957276
0.007122072
-0.002732342
0.01672398
0.01656684
0.01641867
0.01625501
-0.07157807
0.0106365
-0.002233765
-0.07473062
0.01371107
-0.0009088712
-0.0789531
0.01577552
-0.0004361351
-0.08413051
0.01686232
-6.522779e-05
0.01646586
9.897044e-05
-0.08990505
0.0008184825
-0.0004220991
-0.01511687
0.0004738911
-0.001240624
-3.40679e-05
0.0008472102
-3.853572e-05
-0.06618962
0.009117553
-0.002554993
0.01582642
0.01562879
0.01554503
0.0153464
-0.0688025
0.01390472
-0.002131199
-0.0728299
0.01823772
-0.0008713761
-0.07823594
0.02148697
-0.0004283648
-0.0849529
0.0236824
-6.705598e-05
0.02414302
9.386655e-05
-0.09263235
0.0007635644
-0.0005136598
-0.01397613
0.0005689033
-0.001176929
-3.724563e-05
0.0007942891
-4.216055e-05
-0.06163401
0.01138163
-0.002314013
0.01464239
0.01440588
0.01439345
0.01417374
-0.06488107
0.01773357
-0.001938778
-0.06981354
0.02363153
-0.0007816521
-0.07650555
0.02846308
-0.0003291686
-0.08498464
0.03223436
8.487456e-05
0.03406838
0.000377869
-0.09498677
0.0006929837
-0.0006115822
-0.01248875
0.0006600171
-0.001088481
-4.090508e-05
0.0007248245
-4.61989e-05
-0.05563554
0.01395747
-0.002000636
0.01308319
0.01282221
0.01287543
0.01264739
-0.05952763
0.02217598
-0.00180493
-0.06547423
0.03005389
-0.0008159628
-0.0736798
0.03706869
-0.0005300448
-0.08440819
0.04325651
-0.0002538561
0.04755754
-9.631569e-05
-0.09761665
0.0006062784
-0.000699624
-0.01064909
0.000743709
-0.0009768553
-4.419768e-05
0.0006380432
-4.920262e-05
-0.04797221
0.01668576
-0.001646075
0.011151
0.01088439
0.01098978
0.01077061
-0.05239119
0.02701649
-0.001457438
-0.05908386
0.03722695
-0.0008045194
-0.0686029
0.0470355
-0.0005508299
-0.08162855
0.05660975
-0.0001693861
0.06470517
0.0004840344
-0.09865468
0.0004940617
-0.000794344
-0.008323333
0.0007994596
-0.0008101075
-4.73795e-05
0.0005257831
-5.222652e-05
-0.03821506
0.01958005
-0.001063127
0.008668254
0.008418549
0.008567823
0.008390959
-0.04279065
0.03199533
-0.00168605
-0.04991112
0.04492066
-0.001634079
-0.06046557
0.05852995
-0.002265036
-0.0758486
0.07326751
-0.002717251
0.088298
-0.003222658
-0.09754851
0.0003631475
-0.0008589223
-0.005669783
0.0008494331
-0.0005524149
-4.232908e-05
0.0003926789
-4.393457e-05
-0.02571565
0.005062609
-0.001152768
0.005829763
0.005684199
0.005797622
0.00574814
0.005430272
0.005114895
0.005440647
-0.02914
0.008228425
-0.001198685
0.008668343
0.008239695
0.008831453
-0.03521854
0.01199911
-0.002021722
0.01256703
0.01191106
0.01274811
-0.04520376
0.01615208
-0.002544045
0.01690663
0.01598583
0.01710668
-0.06151199
0.02113145
-0.002924329
0.02207435
0.02084649
0.02233197
0.02696561
-0.002458704
0.02809282
0.02649794
0.02844729
-0.08774744
0.0002073218
-0.003222521
-0.0002391266
0.000324475
0.0003164929
0.0003018789
0.0003943343
-0.001103174
-5.794774e-06
0.0001660269
5.618114e-06
4.984944e-05
0.003126949
-0.003016283
0.004822522
7.957115e-05
0.0001179276
0.003296558
-0.0034538
0.008175303
9.243709e-05
0.0002888776
0.00399372
-0.004373523
0.01197867
0.000111364
0.0004942869
0.005169985
-0.005870722
0.01630853
4.999804e-05
0.00075811
0.007166393
-0.008435046
0.02164939
-7.403256e-06
0.0009824164
0.01065153
-0.01300742
0.02835948
-2.039595e-05
0.0009517936
0.01695033
0.03699635
0.0001255432
-0.03360551
-0.0214185
5.157758e-06
4.599451e-05
0.0001812533
1.34741e-05
6.482502e-05
4.783804e-05
6.63913e-05
1.004871e-05
-1.698067e-05
2.639798e-06
-0.0004206418
0.003583308
2.47675e-05
1.665629e-05
0.0001028569
-0.0004396937
-0.0004340841
0.0001829641
0.0003093991
0.000157797
0.000248686
-0.002750643
-6.728338e-05
2.288871e-05
-0.0004625471
-0.0004950719
0.005326603
-5.319788e-05
5.315582e-06
0.0001394804
0.0001873636
0.0003197312
0.000123122
0.0003190326
-0.002760406
-7.858343e-05
5.484709e-05
0.007140568
-0.0001864769
-1.852863e-05
0.0001770253
0.000142217
0.0003398463
0.0001399306
0.000377235
-0.002799405
-5.572261e-05
6.991453e-05
0.009023591
-8.978269e-05
-1.848404e-05
0.0001574469
0.0001206983
0.0003799581
0.0001487615
0.0004142503
-0.002981609
-7.956049e-05
6.52982e-05
0.01121789
-6.426965e-05
-5.582628e-05
0.0001734595
0.0001189352
0.0004484299
0.0001695501
0.000449785
-0.003407973
-0.0001016577
7.526713e-05
-9.499535e-05
-5.026092e-05
0.0001936977
0.0001794199
0.0005715077
0.0001895716
0.000524954
0.01395554
-0.004221809
-0.0001221889
9.245385e-05
0.003539453
2.300251e-05
-0.01517632
-0.0005023794
1.849306e-05
0.004296973
0.003515435
0.004285347
-0.06367192
-0.001675037
-0.000103105
0.001104612
-0.002049171
0.0004368874
1.782164e-06
0.01444505
0.01830686
0.01499375
0.0182103
-0.06261004
-0.00119757
0.0002012423
0.00191406
-0.00196108
0.0001130205
-0.0001315529
-0.06237221
-0.0003558973
-0.0002006563
0.00207126
-0.001886065
0.0001990723
-6.554079e-05
-0.06180447
-0.0006307624
-4.343705e-05
0.001993913
-0.001893933
0.000119428
-0.0001129455
-0.0006715167
-8.759222e-05
0.001990836
-0.001857056
0.0001329101
-0.0001025133
-0.06120954
0.001032097
0.0002205265
-0.01806061
-0.001085036
-0.0001472394
2.539074e-05
0.001034648
2.688591e-05
-0.07217826
-0.0006360953
-0.0007695659
0.0001266718
-0.0003356262
2.780693e-05
-0.0002965584
0.01800228
0.01834527
0.0179686
0.0181936
-0.07320158
-0.0009049688
5.628187e-05
-0.07349418
-0.0009778249
-0.0002148498
-0.07306677
-0.0008238073
-6.499059e-05
-0.07264951
-0.001076405
-3.789066e-05
-0.001378027
-2.988828e-05
-0.07196615
-0.07210706
-0.001006899
-0.001104498
0.001864014
-0.0002232987
0.003248471
-0.0002034583
0.002006683
-0.0001185517
0.003414356
-0.0001268343
-0.07354637
-0.0002430396
-0.001035728
-0.07434242
-0.0007971602
-0.001066162
-0.07451764
-0.0008420333
-0.000478453
-0.07443925
-0.0009621995
-0.0002993356
-0.07409841
-0.001422186
-0.0001083313
-0.001933413
-7.775117e-05
-0.07357033
-0.07231345
-4.272749e-05
-0.001786171
0.003583001
-0.0001733645
0.003696067
-0.0001454499
-0.07377963
-0.0001541782
-0.001392058
-0.07485874
-0.0003979886
-0.001215362
-0.07501761
-0.000672936
-0.0007739499
-0.07501554
-0.0009704684
-0.0003484835
-0.0748561
-0.001574752
-0.0001298183
-0.002316162
-4.671395e-05
-0.07448042
-0.07245672
7.532258e-05
-0.002048751
0.003746604
-0.0001233361
0.003756374
-0.0001154558
-0.07408836
8.398307e-05
-0.00149222
-0.07502939
-0.000152273
-0.001606381
-0.0752167
-0.0003851154
-0.0009812028
-0.07535884
-0.0008107329
-0.0004892318
-0.07539195
-0.001520706
-0.0001661936
-0.002456817
-5.223921e-05
-0.07526311
-0.07249488
0.0001859945
-0.002082065
0.003742844
-0.0001143616
0.003753642
-0.0001106056
-0.07416913
0.0003315709
-0.001599972
-0.07526056
0.0002716087
-0.001666375
-0.07555266
4.688217e-05
-0.001090677
-0.07591536
-0.0003982047
-0.0005261736
-0.07621093
-0.00119518
-0.0001833381
-0.002293598
-3.637495e-05
-0.07638231
-0.07241927
0.0003282508
-0.002073976
0.003739472
-0.0001117785
0.003754304
-0.0001141639
-0.07424867
0.0007120065
-0.001619515
-0.07545456
0.0008212617
-0.001740318
-0.07596958
0.0007190165
-0.001139607
-0.07660744
0.0002979837
-0.0005716654
-0.07724665
-0.0005208152
-0.0001972481
-0.001747188
-3.796395e-05
-0.07780352
-0.07217971
0.0005218691
-0.002062799
0.003723159
-0.0001160951
0.003745306
-0.0001207559
-0.07414718
0.001226516
-0.001632998
-0.07558304
0.001609064
-0.001756676
-0.07638483
0.001686904
-0.001160986
-0.07739715
0.001375868
-0.0005822025
-0.07846494
0.0005849659
-0.0002016471
-0.0007237824
-3.138844e-05
-0.07949881
-0.0716991
0.0007731116
-0.002045884
0.003696714
-0.000122562
0.003729208
-0.0001296519
-0.07384645
0.001931706
-0.001614603
-0.07554938
0.00266691
-0.001768953
-0.07672215
0.003030626
-0.001168045
-0.07819318
0.002915193
-0.0005910264
-0.0797991
0.002229825
-0.0002028361
0.00089147
-2.611248e-05
-0.08142562
-0.07088028
0.001091446
-0.002020474
0.003653003
-0.0001313308
0.003699856
-0.000140053
-0.07322712
0.00284958
-0.001587401
-0.07526216
0.004062408
-0.001762692
-0.07689038
0.004832523
-0.001164208
-0.07892987
0.005025751
-0.0005888703
-0.08119926
0.004537936
-0.0001985927
0.003237523
-1.578636e-05
-0.08355963
-0.06961545
0.001484094
-0.001983528
0.003587769
-0.0001417073
0.003653617
-0.000151816
-0.07218391
0.004012567
-0.001551018
-0.07460551
0.005854045
-0.001739954
-0.076783
0.007184081
-0.001149163
-0.07951146
0.007829035
-0.0005769456
-0.08259671
0.007663852
-0.0001837429
0.006495285
6.81513e-06
-0.08587081
-0.06776354
0.001959564
-0.001929168
0.003493376
-0.0001551258
0.003580476
-0.0001653459
-0.0705722
0.005455421
-0.001499935
-0.07344542
0.00810898
-0.001700401
-0.07628482
0.01019411
-0.001123879
-0.07985951
0.01147911
-0.0005598641
-0.08396726
0.01181127
-0.0001650666
0.01091417
3.30906e-05
-0.08840895
-0.06518094
0.002519307
-0.001854716
0.003364384
-0.000171386
0.003475823
-0.00018152
-0.06822903
0.007196475
-0.001425312
-0.07160773
0.01088676
-0.001632843
-0.07521288
0.01396411
-0.001073727
-0.07978424
0.01613011
-0.0005157665
-0.0851214
0.01719665
-0.0001134494
0.01679023
0.0001083215
-0.09100681
-0.06166542
0.003170279
-0.001751504
0.003190365
-0.0001915788
0.003328617
-0.0002020438
-0.06497101
0.009273378
-0.001326308
-0.06892588
0.01425904
-0.001548614
-0.07345083
0.01863847
-0.001020786
-0.07925942
0.02200746
-0.0004971198
-0.08620281
0.02417552
-0.0001025455
0.02462155
0.0001236378
-0.0940639
-0.05704794
0.003882994
-0.001620516
0.002966389
-0.000212776
0.003136412
-0.0002194336
-0.0605514
0.01165213
-0.001189305
-0.06509205
0.01826191
-0.001401004
-0.07056699
0.02425032
-0.0009185664
-0.07769309
0.02922162
-0.0004172239
-0.08640535
0.03298524
-1.258888e-05
0.03488014
0.0002919579
-0.09657804
-0.05105075
0.004688436
-0.001438931
0.002673446
-0.0002354024
0.002873431
-0.0002382122
-0.05482579
0.01443926
-0.001012737
-0.05999291
0.02291296
-0.001288864
-0.06660475
0.0309573
-0.0009111006
-0.0753898
0.03806812
-0.0005914992
-0.0866146
0.04427294
-0.0003167544
0.04867065
-0.0001146662
-0.1003868
-0.04358137
0.005526068
-0.001225406
0.002314293
-0.0002451491
0.00253797
-0.0002427244
-0.04727711
0.01730582
-0.0008168939
-0.05291858
0.02812884
-0.001031843
-0.06016101
0.038272
-0.0008767857
-0.07005292
0.04816337
-0.0007541805
-0.08327177
0.05787667
-0.0005542801
0.06643882
-0.0001162777
-0.1004396
-0.03415701
0.006909823
-0.0007862803
0.001823262
-0.0002698219
0.002022455
-0.0002510525
-0.03811357
0.02068391
-0.0004846517
-0.04324407
0.03262257
-0.001049277
-0.05062754
0.04513681
-0.001115425
-0.06170337
0.05856429
-0.001590125
-0.07797925
0.07333985
-0.001904553
0.08871365
-0.002220939
-0.1012558
-0.02349357
0.00215543
-0.0004358655
0.002332046
0.002582852
0.002356885
0.001109691
-0.0002292057
0.0008971996
-0.0001374558
-0.0246213
0.005125716
-0.0005748812
0.005422383
0.00519092
0.005494725
-0.02789026
0.0352105
-0.0005176645
-0.0332603
0.04947767
-0.0009925276
-0.04234286
0.06639739
-0.001294585
-0.05736554
0.08692577
-0.001487563
0.111964
-0.001105971
-0.0819686
0.0003210802
-0.002933459
-0.0001247033
0.000371568
0.000504183
0.0003759935
0.0005050777
0.002541656
-0.0001719868
-0.002202902
0.004877067
8.188227e-05
-0.007897924
-0.0006475812
-5.769917e-05
-8.639728e-05
0.001183048
0.001665666
0.002264029
0.00194149
0.002291013
0.002431749
-0.008915546
-0.000815184
-0.0001373395
-0.0001384816
0.002578606
0.0023766
-0.01279454
-0.001394036
4.413745e-06
-3.733083e-05
0.003590671
0.003212237
-0.0202226
-0.001820627
9.711552e-05
5.215495e-05
0.004777923
0.004204322
-0.002343184
0.000249757
0.000197331
0.006483053
0.005522559
-0.03475013
0.002974892
-0.0009686569
-0.0001905814
-0.0003142818
0.0001198214
-0.0007264463
-0.0008947464
0.003800759
-0.0007376909
-8.638745e-05
-0.0001821409
0.0001803519
0.00485634
-0.0009591396
-8.390007e-05
-0.0002501741
0.0002376325
0.006090502
-0.001123762
-0.0001245779
-0.0002506914
0.00026487
-0.001286969
-0.0001473764
-0.0003889367
0.0002728778
0.007640906
4.23391e-05
-3.834187e-05
0.0001639541
2.772049e-05
5.985684e-05
4.403956e-05
6.04117e-05
-0.0003599798
0.003338133
4.6393e-05
-0.0004089772
-0.000405219
0.0001422837
0.00025796
0.0001513518
0.0003496606
-0.0025247
-0.000458627
-0.0004634911
0.004985814
1.581633e-05
-0.002685352
0.006844555
-0.0001028573
-0.002680051
0.008713494
-3.189059e-05
-0.002885971
0.0108437
-1.592424e-05
-0.003302316
3.776273e-06
0.01351134
-0.004053372
0.003608474
0.0001244868
-0.01533807
-0.0005505057
-7.601653e-05
0.004319601
0.003587433
0.004324598
-0.06457449
-0.00243874
-0.000178631
0.01521059
0.01835646
0.01522585
0.01829586
-0.06299939
-0.001347003
-2.686128e-05
-0.06275411
-0.0003665255
-7.940557e-05
-0.06219086
-0.0005853358
-2.134782e-05
-0.0006393799
-3.714516e-05
-0.06160193
0.001024986
4.45464e-06
-0.01800928
-0.001308277
-2.509691e-06
-5.721294e-06
0.001028533
-5.094528e-06
-0.07178502
-0.0006560913
-0.0002665417
4.608639e-05
-0.0002678797
3.539237e-05
-0.0002566365
0.0179716
0.01823117
0.01796789
0.01821046
-0.07316125
-0.001012703
6.474042e-06
-0.07355422
-0.001057094
-0.0001117897
-0.07307611
-0.0008622777
-4.733927e-05
-0.07262227
-0.00105438
-2.268566e-05
-0.001348816
-1.983037e-05
-0.0719229
-0.07200861
-0.001304687
2.11453e-06
0.003564328
-0.0002203919
0.00367045
-0.0002153528
-0.07310773
-0.0002598051
-0.0003328927
-0.07381608
-0.0009135662
-0.0004569458
-0.07414663
-0.0009604487
-0.0002445519
-0.07411501
-0.001014427
-0.0001788058
-0.07378336
-0.001431784
-6.257688e-05
-0.001920831
-4.403968e-05
-0.07324506
-0.07206699
1.56614e-05
-4.940987e-05
-0.07318084
-0.0001189413
-0.0004190757
-0.07436936
-0.000412761
-0.0005276495
-0.07494151
-0.000737778
-0.0004244689
-0.07505331
-0.001014751
-0.0002363647
-0.07493152
-0.001593396
-8.999278e-05
-0.002323095
-3.46622e-05
-0.07454131
-0.07238336
0.0001050091
-0.000118684
-0.07358805
8.742359e-05
-0.0004939033
-0.07470907
-0.0001672005
-0.0007309138
-0.07541065
-0.0004276085
-0.0005897928
-0.07569974
-0.0008339005
-0.0003809965
-0.07578817
-0.001541453
-0.0001297049
-0.002469685
-4.464005e-05
-0.07564918
-0.07235792
0.0001730147
-0.0001201538
-0.0736624
0.000322529
-0.0005305933
-0.07498856
0.0002707134
-0.0007781385
-0.07584994
2.276079e-05
-0.0006796597
-0.07635636
-0.0004024903
-0.0004511626
-0.07671949
-0.001208516
-0.0001531516
-0.002307578
-3.464996e-05
-0.07688332
-0.07230698
0.0002979525
-0.0001317635
-0.07376481
0.0007121419
-0.0005512977
-0.07522241
0.0008103486
-0.000822355
-0.07632646
0.0007092947
-0.0007220926
-0.07710923
0.0003056999
-0.0004970817
-0.07782344
-0.0005234367
-0.0001681167
-0.001755395
-3.654656e-05
-0.07837703
-0.07205667
0.0004761099
-0.000131352
-0.07365574
0.001235325
-0.0005571126
-0.07536141
0.001589844
-0.0008305058
-0.07676578
0.001692465
-0.0007397828
-0.07793209
0.001399626
-0.0005098144
-0.0790825
0.000599024
-0.0001736941
-0.0007186898
-3.294511e-05
-0.08011765
-0.07157883
0.0007180922
-0.0001339597
-0.07335074
0.00194771
-0.0005550815
-0.07533312
0.00263875
-0.0008354833
-0.07711743
0.003055875
-0.0007471424
-0.0787503
0.002960198
-0.000518718
-0.08044726
0.002269228
-0.0001760782
0.0009192247
-3.027406e-05
-0.08208101
-0.07075984
0.001025733
-0.0001320483
-0.07272412
0.002873137
-0.0005485467
-0.07504873
0.004030164
-0.0008294949
-0.07729658
0.004885624
-0.0007461104
-0.07951067
0.005103984
-0.0005185574
-0.08188217
0.004616635
-0.0001745012
0.003302825
-2.451578e-05
-0.08425704
-0.06949487
0.001406799
-0.0001306886
-0.07168121
0.004045158
-0.0005367027
-0.07440064
0.005826899
-0.0008172611
-0.07720521
0.007278609
-0.0007375748
-0.08012472
0.007958659
-0.0005121104
-0.08332757
0.007802301
-0.0001665591
0.006619643
-1.11771e-05
-0.0866264
-0.06764093
0.001867942
-0.0001252192
-0.07007898
0.005500773
-0.0005175079
-0.0732601
0.008103935
-0.0007963182
-0.07673573
0.01035209
-0.0007217352
-0.08052583
0.01169001
-0.0005011213
-0.08477326
0.01204108
-0.0001564064
0.01113262
3.601511e-06
-0.08925675
-0.06505063
0.002409725
-0.0001208214
-0.06775452
0.007267532
-0.000488184
-0.07145518
0.01093429
-0.0007625356
-0.07570904
0.01422297
-0.0006907354
-0.08053054
0.0164702
-0.0004744563
-0.08603983
0.0175647
-0.0001277807
0.0171513
4.57062e-05
-0.09199589
-0.06153095
0.003041532
-0.0001141908
-0.06453608
0.009397277
-0.000450923
-0.06883354
0.01440412
-0.0007209917
-0.07403105
0.01905759
-0.0006578898
-0.08014323
0.02254516
-0.0004598946
-0.08730529
0.02475338
-0.0001291617
0.02521033
4.327644e-05
-0.09528395
-0.05690353
0.003736728
-0.0001067639
-0.06015626
0.01185586
-0.0003951626
-0.06507813
0.01857014
-0.0006451501
-0.07126547
0.02492187
-0.0005955031
-0.07876354
0.03004509
-0.0004190848
-0.08776771
0.03384884
-0.0001038689
0.03578889
0.0001037831
-0.09815807
-0.05090848
0.004541309
-9.472904e-05
-0.05449983
0.0147672
-0.0003327226
-0.06008529
0.02346379
-0.0005970571
-0.06749343
0.03200126
-0.0005823415
-0.07670397
0.03918982
-0.0005256808
-0.0882811
0.04548809
-0.0003788606
0.05005832
-0.0002705134
-0.1023947
-0.04340915
0.005402515
-8.251651e-05
-0.04697165
0.0177643
-0.0002514952
-0.0530475
0.02896371
-0.0004559177
-0.06064248
0.0391939
-0.0004744452
-0.07072667
0.04898321