/*--------------------------------*- C++ -*----------------------------------*\
  =========                 |
  \\      /  F ield         | OpenFOAM: The Open Source CFD Toolbox
   \\    /   O peration     | Website:  https://openfoam.org
    \\  /    A nd           | Version:  7
     \\/     M anipulation  |
\*---------------------------------------------------------------------------*/
FoamFile
{
    version     2.0;
    format      ascii;
    class       volScalarField;
    location    "0.01";
    object      epsilon;
}
// * * * * * * * * * * * * * * * * * * * * * * * * * * * * * * * * * * * * * //

dimensions      [0 2 -3 0 0 0 0];

internalField   nonuniform List<scalar> 
89125
(
0.002067591
0.002173155
0.002191766
0.002194487
0.002194812
0.002194858
0.002194868
0.002194867
0.0009534267
0.0009848185
0.001000236
0.001004505
0.001005665
0.001006022
0.001006137
0.001006167
0.001006149
0.004628424
0.0009722743
0.001012054
0.001026266
0.001030555
0.001031899
0.001032382
0.001032557
0.001032601
0.001032566
0.004623336
0.0009788726
0.001021671
0.00103742
0.001042058
0.001043561
0.001044126
0.001044339
0.001044391
0.001044341
0.004623855
0.0009803823
0.001024118
0.001040407
0.001045297
0.001046906
0.001047524
0.00104776
0.001047818
0.001047759
0.004623945
0.0009806084
0.001024435
0.001040774
0.00104569
0.001047314
0.00104794
0.001048181
0.00104824
0.001048177
0.00462401
0.0009801217
0.001023411
0.001039384
0.001044096
0.001045622
0.001046207
0.00104643
0.001046488
0.001046427
0.004624087
0.0009779641
0.001019296
0.001034104
0.001038254
0.001039547
0.001040053
0.001040255
0.001040304
0.001040241
0.004624172
0.0009693389
0.001004361
0.001015798
0.001018823
0.001019749
0.001020164
0.001020351
0.001020434
0.001020346
0.004624025
0.0009415887
0.0009578733
0.0009641395
0.0009653782
0.0009657869
0.0009666182
0.0009663338
0.0009672693
0.0009666353
0.004648767
0.001971042
0.002039158
0.002054844
0.002044899
0.002043924
0.00204559
0.002079664
0.002081418
0.002050992
0.008929813
0.008942841
0.004293637
0.008995738
0.008926324
0.008965176
0.009888283
0.004500098
0.009025806
0.001946162
0.001979636
0.00198819
0.001974726
0.001974001
0.001973613
0.001973677
0.001974145
0.001983495
0.0009457447
0.0009696607
0.0009771748
0.0009788335
0.0009794086
0.0009796751
0.0009797982
0.0009799298
0.0009802208
0.0009613063
0.001002217
0.001014835
0.001018108
0.001019094
0.001019475
0.001019633
0.0010197
0.001019718
0.0009681146
0.00101499
0.001031114
0.001035581
0.001036966
0.001037485
0.001037687
0.001037746
0.001037711
0.000969965
0.001018862
0.00103629
0.001041395
0.001043042
0.001043667
0.001043908
0.001043973
0.001043926
0.0009704866
0.001020053
0.001037973
0.001043364
0.001045153
0.001045845
0.00104611
0.001046182
0.001046129
0.000970603
0.001020417
0.001038528
0.001044039
0.001045894
0.001046615
0.001046894
0.001046972
0.001046918
0.0009705952
0.001020529
0.001038725
0.001044294
0.001046184
0.001046924
0.001047213
0.001047292
0.001047237
0.01226724
0.01226514
0.01226505
0.01226506
0.01226505
0.01226506
0.01226506
0.01226505
0.01226505
0.002073205
0.01226447
0.01226447
0.01226448
0.01226447
0.01226447
0.01226447
0.01226447
0.01226447
0.01226447
0.0009775628
0.01226398
0.0122645
0.01226448
0.01226448
0.01226448
0.01226448
0.01226448
0.01226448
0.01226448
0.0009924908
0.01226376
0.01226447
0.01226447
0.01226447
0.01226447
0.01226447
0.01226447
0.01226447
0.01226447
0.0009977112
0.01226361
0.01226447
0.01226447
0.01226447
0.01226446
0.01226446
0.01226446
0.01226446
0.01226446
0.0009986935
0.01226383
0.01226427
0.01226422
0.01226418
0.01226416
0.01226414
0.01226417
0.01226415
0.01226415
0.0009985144
0.0122639
0.01226422
0.01226413
0.01226405
0.01226403
0.012264
0.01226406
0.012264
0.01226401
0.0009970079
0.01226387
0.01226298
0.01226251
0.0122621
0.01226196
0.0122619
0.01226208
0.01226187
0.01226184
0.0009907105
0.01226178
0.01226116
0.01226072
0.01226038
0.01226047
0.01226043
0.01226118
0.01226043
0.01226039
0.0009728271
0.01226179
0.01225093
0.01224792
0.01224598
0.01224546
0.012245
0.01224806
0.01224524
0.01224498
0.002114799
0.01227509
0.01227899
0.01227484
0.01227378
0.01227373
0.01227398
0.01227803
0.0122793
0.0122748
0.005721834
0.01226377
0.01226316
0.01226317
0.01226318
0.01226318
0.01226318
0.01226318
0.01226318
0.01226318
0.002071025
0.01226369
0.01226371
0.01226371
0.01226371
0.01226371
0.01226371
0.01226371
0.01226371
0.01226371
0.00209175
0.01226368
0.0122637
0.0122637
0.0122637
0.0122637
0.0122637
0.0122637
0.0122637
0.0122637
0.00209568
0.01226368
0.01226369
0.0122637
0.0122637
0.0122637
0.0122637
0.0122637
0.0122637
0.0122637
0.002096493
0.01226367
0.01226369
0.01226369
0.01226369
0.01226369
0.01226369
0.01226369
0.01226369
0.01226369
0.002096733
0.01226367
0.01226369
0.01226369
0.01226369
0.01226369
0.01226369
0.01226369
0.01226369
0.01226369
0.002096749
0.01226367
0.01226369
0.01226369
0.01226369
0.01226369
0.01226369
0.01226369
0.01226369
0.01226369
0.002096544
0.01226367
0.01226369
0.01226369
0.01226369
0.01226369
0.01226369
0.01226369
0.01226369
0.01226369
0.01226665
0.01226508
0.01226504
0.01226505
0.01226504
0.01226504
0.01226504
0.01226504
0.01226504
0.002088509
0.01226496
0.01226497
0.01226493
0.01226493
0.01226493
0.01226493
0.01226493
0.01226493
0.01226493
0.0009952027
0.01226446
0.01226494
0.01226493
0.01226493
0.01226493
0.01226493
0.01226493
0.01226493
0.01226493
0.001022479
0.01226448
0.01226493
0.01226493
0.01226492
0.01226492
0.01226492
0.01226492
0.01226492
0.01226492
0.001031334
0.01226441
0.01226492
0.01226492
0.01226492
0.01226492
0.01226492
0.01226492
0.01226492
0.01226492
0.001033197
0.01226443
0.01226492
0.01226492
0.01226492
0.01226492
0.01226492
0.01226492
0.01226492
0.01226492
0.001032905
0.01226429
0.01226493
0.01226492
0.01226492
0.01226492
0.01226492
0.01226492
0.01226492
0.01226492
0.001030238
0.01226339
0.01226496
0.01226499
0.012265
0.01226496
0.01226497
0.01226499
0.01226498
0.01226499
0.0010197
0.0122621
0.01226521
0.01226505
0.01226512
0.01226523
0.01226524
0.01226516
0.01226515
0.0122651
0.0009872989
0.01225437
0.01226772
0.01226717
0.01226588
0.01226579
0.01226569
0.01226579
0.01226569
0.01226581
0.002185469
0.01228184
0.01227067
0.01227236
0.01226966
0.01226836
0.01226816
0.0122691
0.01226901
0.01226923
0.005716093
0.01226315
0.0007283575
0.0007962256
0.0008198576
0.0008266263
0.0008286765
0.0008294146
0.0008296708
0.0008296713
0.0009739471
0.01226369
0.01226366
0.01226369
0.01226369
0.01226369
0.01226369
0.01226369
0.01226369
0.01226369
0.0009914568
0.01226368
0.01226415
0.01226415
0.01226415
0.01226415
0.01226415
0.01226415
0.01226415
0.01226415
0.0009994942
0.01226367
0.01226415
0.01226415
0.01226415
0.01226415
0.01226415
0.01226415
0.01226415
0.01226415
0.001001891
0.01226367
0.01226415
0.01226415
0.01226415
0.01226415
0.01226415
0.01226415
0.01226415
0.01226415
0.001002692
0.01226367
0.01226415
0.01226415
0.01226415
0.01226415
0.01226415
0.01226415
0.01226415
0.01226415
0.001002981
0.01226367
0.01226415
0.01226415
0.01226415
0.01226415
0.01226415
0.01226415
0.01226415
0.01226415
0.00100309
0.01226367
0.01226415
0.01226415
0.01226415
0.01226415
0.01226415
0.01226415
0.01226415
0.01226415
0.01226661
0.01226509
0.01226504
0.01226503
0.01226504
0.01226504
0.01226504
0.01226504
0.01226504
0.00209262
0.01226494
0.01226494
0.01226492
0.01226492
0.01226492
0.01226492
0.01226492
0.01226492
0.01226492
0.001001855
0.01226446
0.01226494
0.01226493
0.01226492
0.01226492
0.01226492
0.01226492
0.01226492
0.01226492
0.001032782
0.01226448
0.01226493
0.01226493
0.01226492
0.01226492
0.01226492
0.01226492
0.01226492
0.01226492
0.001043759
0.01226446
0.01226492
0.01226492
0.01226492
0.01226491
0.01226491
0.01226491
0.01226491
0.01226491
0.001046095
0.01226445
0.01226492
0.01226492
0.01226491
0.01226491
0.01226491
0.01226491
0.01226491
0.01226491
0.001045695
0.01226428
0.01226492
0.01226492
0.01226491
0.01226491
0.0122649
0.0122649
0.01226491
0.01226491
0.001042319
0.01226297
0.012265
0.01226492
0.01226491
0.01226492
0.01226495
0.01226495
0.01226494
0.01226493
0.001029291
0.0122622
0.01226504
0.01226525
0.01226507
0.01226493
0.01226494
0.01226496
0.01226497
0.01226498
0.000992982
0.0122523
0.01226699
0.01226645
0.01226705
0.01226833
0.01226901
0.01226806
0.01226778
0.0122676
0.002194875
0.0122745
0.01227186
0.01226818
0.01227493
0.01227393
0.01227374
0.01227343
0.01227388
0.01227398
0.005677669
0.01226316
0.0007961339
0.0008855118
0.000924878
0.0009367895
0.0009404009
0.0009416888
0.0009420814
0.0009419806
0.0009873164
0.0122637
0.01226369
0.01226372
0.01226373
0.01226372
0.01226372
0.01226372
0.01226372
0.01226372
0.001017074
0.01226369
0.01226415
0.01226415
0.01226415
0.01226415
0.01226415
0.01226415
0.01226415
0.01226415
0.001029075
0.01226369
0.01226415
0.01226415
0.01226415
0.01226415
0.01226415
0.01226415
0.01226415
0.01226415
0.001032779
0.01226368
0.01226415
0.01226415
0.01226415
0.01226415
0.01226415
0.01226415
0.01226415
0.01226415
0.001034023
0.01226368
0.01226415
0.01226415
0.01226415
0.01226415
0.01226415
0.01226415
0.01226415
0.01226415
0.001034491
0.01226368
0.01226415
0.01226415
0.01226415
0.01226415
0.01226415
0.01226415
0.01226415
0.01226415
0.001034686
0.01226368
0.01226415
0.01226415
0.01226415
0.01226415
0.01226415
0.01226415
0.01226415
0.01226415
0.01226658
0.01226507
0.01226503
0.01226503
0.01226503
0.01226504
0.01226503
0.01226503
0.01226503
0.002092867
0.01226494
0.01226494
0.01226492
0.01226492
0.01226492
0.01226492
0.01226492
0.01226492
0.01226492
0.001003312
0.01226446
0.01226493
0.01226492
0.01226492
0.01226492
0.01226491
0.01226491
0.01226491
0.01226491
0.001035187
0.01226448
0.01226493
0.01226492
0.01226492
0.01226491
0.01226491
0.01226491
0.01226491
0.01226491
0.001046675
0.01226447
0.01226492
0.01226492
0.01226491
0.01226491
0.01226491
0.01226491
0.01226491
0.01226491
0.001049117
0.01226442
0.01226492
0.01226491
0.01226491
0.0122649
0.0122649
0.0122649
0.0122649
0.0122649
0.001048583
0.01226415
0.01226491
0.01226491
0.0122649
0.0122649
0.0122649
0.0122649
0.0122649
0.0122649
0.001044894
0.0122626
0.01226499
0.01226491
0.01226492
0.01226491
0.0122649
0.0122649
0.0122649
0.0122649
0.001031263
0.01226171
0.01226516
0.01226498
0.0122649
0.01226495
0.01226498
0.01226499
0.01226496
0.01226491
0.0009941064
0.0122505
0.01226578
0.01226663
0.01226642
0.01226652
0.01226653
0.01226633
0.01226587
0.01226559
0.002195958
0.01227543
0.01226937
0.01227345
0.01227065
0.01227135
0.01227023
0.01227103
0.01226902
0.01226707
0.005563838
0.01226317
0.0008179856
0.0009218543
0.0009694008
0.0009842354
0.0009887573
0.0009903683
0.0009908502
0.0009907072
0.0009916733
0.0122637
0.01226369
0.01226373
0.01226373
0.01226373
0.01226373
0.01226373
0.01226373
0.01226373
0.00102486
0.01226369
0.01226415
0.01226415
0.01226415
0.01226415
0.01226415
0.01226415
0.01226415
0.01226415
0.001039091
0.01226369
0.01226415
0.01226415
0.01226415
0.01226415
0.01226415
0.01226415
0.01226415
0.01226415
0.001043449
0.01226369
0.01226415
0.01226415
0.01226415
0.01226415
0.01226415
0.01226415
0.01226415
0.01226415
0.001044911
0.01226368
0.01226415
0.01226415
0.01226415
0.01226415
0.01226415
0.01226415
0.01226415
0.01226415
0.001045468
0.01226368
0.01226415
0.01226415
0.01226415
0.01226415
0.01226415
0.01226415
0.01226415
0.01226415
0.001045701
0.01226368
0.01226415
0.01226415
0.01226415
0.01226415
0.01226415
0.01226415
0.01226415
0.01226415
0.01226659
0.01226509
0.01226503
0.01226503
0.01226503
0.01226503
0.01226503
0.01226503
0.01226503
0.002093069
0.01226494
0.01226494
0.01226492
0.01226492
0.01226492
0.01226492
0.01226492
0.01226492
0.01226492
0.001003017
0.01226446
0.01226493
0.01226492
0.01226492
0.01226492
0.01226491
0.01226491
0.01226491
0.01226491
0.001034633
0.01226448
0.01226493
0.01226492
0.01226492
0.01226491
0.01226491
0.01226491
0.01226491
0.01226491
0.001045951
0.01226447
0.01226492
0.01226492
0.01226491
0.01226491
0.01226491
0.01226491
0.01226491
0.01226491
0.00104812
0.01226444
0.01226492
0.01226491
0.01226491
0.0122649
0.0122649
0.0122649
0.0122649
0.0122649
0.001047216
0.01226425
0.01226492
0.01226491
0.0122649
0.0122649
0.0122649
0.0122649
0.0122649
0.0122649
0.001043312
0.01226263
0.01226499
0.01226491
0.01226493
0.01226492
0.0122649
0.0122649
0.0122649
0.0122649
0.001029848
0.01226178
0.01226516
0.01226498
0.0122649
0.01226495
0.01226499
0.01226499
0.01226495
0.01226492
0.0009933184
0.01225049
0.01226579
0.01226662
0.01226649
0.01226657
0.01226656
0.01226637
0.01226593
0.01226563
0.002195896
0.0122733
0.01226926
0.01227317
0.01227146
0.01227052
0.0122705
0.01227225
0.01226807
0.01226719
0.005055943
0.01226317
0.0008179802
0.0009218713
0.0009693992
0.0009842295
0.0009887528
0.0009903642
0.0009908444
0.0009906986
0.0009908282
0.0122637
0.01226369
0.01226373
0.01226373
0.01226373
0.01226373
0.01226373
0.01226373
0.01226373
0.001024732
0.01226369
0.01226415
0.01226415
0.01226415
0.01226415
0.01226415
0.01226415
0.01226415
0.01226415
0.001039056
0.01226369
0.01226415
0.01226415
0.01226415
0.01226415
0.01226415
0.01226415
0.01226415
0.01226415
0.001043437
0.01226369
0.01226415
0.01226415
0.01226415
0.01226415
0.01226415
0.01226415
0.01226415
0.01226415
0.001044903
0.01226368
0.01226415
0.01226415
0.01226415
0.01226415
0.01226415
0.01226415
0.01226415
0.01226415
0.001045452
0.01226368
0.01226415
0.01226415
0.01226415
0.01226415
0.01226415
0.01226415
0.01226415
0.01226415
0.001045667
0.01226368
0.01226415
0.01226415
0.01226415
0.01226415
0.01226415
0.01226415
0.01226415
0.01226415
0.01226661
0.01226507
0.01226503
0.01226503
0.01226503
0.01226503
0.01226503
0.01226503
0.01226504
0.002092301
0.01226495
0.01226494
0.01226492
0.01226492
0.01226492
0.01226492
0.01226492
0.01226492
0.01226492
0.001000227
0.01226447
0.01226494
0.01226493
0.01226493
0.01226492
0.01226493
0.01226493
0.01226493
0.01226492
0.001029423
0.01226448
0.01226493
0.01226493
0.01226492
0.01226492
0.01226492
0.01226492
0.01226492
0.01226492
0.001039549
0.01226443
0.01226492
0.01226492
0.01226492
0.01226492
0.01226491
0.01226491
0.01226491
0.01226491
0.001040596
0.01226394
0.01226492
0.01226492
0.01226491
0.01226491
0.01226491
0.01226491
0.01226491
0.01226491
0.0010386
0.01226326
0.01226492
0.01226492
0.01226491
0.01226491
0.0122649
0.01226491
0.01226491
0.01226491
0.001033726
0.01226266
0.012265
0.01226493
0.01226492
0.01226493
0.01226497
0.01226496
0.01226495
0.01226494
0.00102129
0.0122623
0.01226505
0.0122652
0.01226507
0.01226494
0.01226494
0.01226496
0.01226497
0.01226497
0.0009881033
0.01225229
0.01226711
0.0122665
0.01226703
0.01226839
0.01226918
0.01226817
0.01226783
0.01226772
0.002193778
0.0122736
0.01227179
0.01226817
0.01227447
0.01227383
0.01227339
0.01227338
0.01227402
0.01227365
0.005167457
0.01226316
0.0007961326
0.0008855303
0.0009248767
0.0009367839
0.0009403922
0.0009416758
0.0009420562
0.0009419433
0.000987173
0.0122637
0.01226369
0.01226372
0.01226373
0.01226372
0.01226372
0.01226372
0.01226372
0.01226372
0.001016901
0.01226369
0.01226415
0.01226415
0.01226415
0.01226415
0.01226415
0.01226415
0.01226415
0.01226415
0.001029005
0.01226369
0.01226415
0.01226415
0.01226415
0.01226415
0.01226415
0.01226415
0.01226415
0.01226415
0.001032743
0.01226368
0.01226415
0.01226415
0.01226415
0.01226415
0.01226415
0.01226415
0.01226415
0.01226415
0.001034
0.01226368
0.01226415
0.01226415
0.01226415
0.01226415
0.01226415
0.01226415
0.01226415
0.01226415
0.001034425
0.01226368
0.01226415
0.01226415
0.01226415
0.01226415
0.01226415
0.01226415
0.01226415
0.01226415
0.001034523
0.01226368
0.01226415
0.01226415
0.01226415
0.01226415
0.01226415
0.01226415
0.01226415
0.01226415
0.01226682
0.01226514
0.01226506
0.01226506
0.01226506
0.01226506
0.01226506
0.01226507
0.01226511
0.002084104
0.01226496
0.01226495
0.01226494
0.01226494
0.01226494
0.01226494
0.01226494
0.01226494
0.01226494
0.0009945969
0.01226446
0.01226494
0.01226493
0.01226493
0.01226493
0.01226493
0.01226493
0.01226493
0.01226493
0.001005828
0.01226449
0.01226493
0.01226493
0.01226492
0.01226492
0.01226492
0.01226492
0.01226492
0.01226492
0.001025155
0.01226441
0.01226492
0.01226492
0.01226492
0.01226492
0.01226492
0.01226492
0.01226492
0.01226492
0.001013238
0.01226227
0.01226493
0.01226492
0.01226492
0.01226492
0.01226492
0.01226492
0.01226492
0.01226492
0.001016975
0.01226221
0.01226494
0.01226492
0.01226492
0.01226492
0.01226492
0.01226492
0.01226492
0.01226492
0.001003242
0.01226296
0.01226496
0.012265
0.01226501
0.01226497
0.01226498
0.012265
0.012265
0.012265
0.0009941173
0.01226327
0.01226512
0.01226507
0.01226511
0.01226522
0.0122652
0.01226516
0.01226513
0.01226508
0.0009733968
0.01225714
0.01226802
0.01226728
0.01226597
0.01226581
0.01226574
0.01226583
0.01226579
0.01226587
0.002173619
0.01227303
0.01227059
0.01227221
0.01226963
0.01226831
0.01226918
0.01226924
0.01226888
0.01226951
0.002126622
0.01226315
0.000728337
0.0007961767
0.0008198278
0.0008266129
0.0008286633
0.0008293903
0.000829609
0.0008295508
0.0009734189
0.01226369
0.01226366
0.01226369
0.01226369
0.01226369
0.01226369
0.01226369
0.01226369
0.01226369
0.0009913541
0.01226368
0.01226415
0.01226415
0.01226415
0.01226415
0.01226415
0.01226415
0.01226415
0.01226415
0.0009993704
0.01226367
0.01226415
0.01226415
0.01226415
0.01226415
0.01226415
0.01226415
0.01226415
0.01226415
0.001001855
0.01226367
0.01226415
0.01226415
0.01226415
0.01226415
0.01226415
0.01226415
0.01226415
0.01226415
0.001002678
0.01226367
0.01226415
0.01226415
0.01226415
0.01226415
0.01226415
0.01226415
0.01226415
0.01226415
0.00100288
0.01226367
0.01226415
0.01226415
0.01226415
0.01226415
0.01226415
0.01226415
0.01226415
0.01226415
0.001002476
0.01226367
0.01226415
0.01226415
0.01226415
0.01226415
0.01226415
0.01226415
0.01226415
0.01226415
0.01226617
0.01226615
0.01226623
0.01226623
0.01226617
0.01226622
0.01226618
0.0122662
0.01226807
0.002069065
0.01226455
0.01226454
0.01226454
0.01226454
0.01226454
0.01226454
0.01226454
0.01226454
0.01226454
0.002129057
0.01226443
0.01226449
0.01226449
0.01226449
0.01226449
0.01226449
0.01226449
0.01226449
0.01226449
0.0009920402
0.01226371
0.01226448
0.01226447
0.01226447
0.01226447
0.01226447
0.01226447
0.01226447
0.01226447
0.0009964202
0.01226388
0.01226447
0.01226447
0.01226447
0.01226447
0.01226447
0.01226447
0.01226447
0.01226447
0.000997218
0.01226247
0.01226394
0.01226428
0.01226418
0.01226419
0.01226419
0.01226419
0.01226418
0.01226419
0.002225786
0.01226446
0.012264
0.01226415
0.01226403
0.01226401
0.01226404
0.01226404
0.012264
0.01226403
0.002201321
0.01226371
0.01226284
0.01226239
0.01226209
0.01226194
0.01226196
0.01226192
0.01226181
0.01226185
0.002188142
0.01226257
0.01226119
0.01226058
0.01226042
0.01226045
0.01226092
0.01226086
0.01226033
0.01226069
0.002158619
0.01226321
0.01225138
0.01224739
0.01224611
0.01224551
0.01224687
0.01224679
0.01224467
0.01224636
0.002146138
0.0122742
0.01227132
0.01226763
0.01226852
0.01226986
0.0122694
0.01226773
0.0122721
0.01226885
0.00507842
0.01226377
0.01226316
0.01226317
0.01226318
0.01226318
0.01226318
0.01226318
0.01226318
0.01226318
0.002099073
0.01226369
0.01226371
0.01226371
0.01226371
0.01226371
0.01226371
0.01226371
0.01226371
0.01226371
0.002173739
0.01226368
0.0122637
0.0122637
0.0122637
0.0122637
0.0122637
0.0122637
0.0122637
0.0122637
0.002184729
0.01226368
0.01226369
0.0122637
0.0122637
0.0122637
0.0122637
0.0122637
0.0122637
0.0122637
0.002187447
0.01226368
0.01226369
0.01226369
0.01226369
0.01226369
0.01226369
0.01226369
0.01226369
0.01226369
0.002189959
0.01226367
0.01226369
0.01226369
0.01226369
0.01226369
0.01226369
0.01226369
0.01226369
0.01226369
0.002191405
0.01226367
0.01226369
0.01226369
0.01226369
0.01226369
0.01226369
0.01226369
0.01226369
0.01226369
0.002184338
0.01226367
0.01226369
0.01226369
0.01226369
0.01226369
0.01226369
0.01226369
0.01226369
0.01226369
0.0122686
0.01226934
0.01227704
0.01227504
0.01226216
0.01227064
0.01226246
0.01227056
0.0122764
0.004671886
0.0009437556
0.0009645872
0.000971563
0.0009738789
0.0009746315
0.000974637
0.0009744244
0.0009742831
0.0009754205
0.004773317
0.0009667069
0.001005944
0.001018457
0.001022013
0.001023029
0.001023244
0.001023308
0.001023302
0.001023432
0.002111772
0.0009765733
0.001019489
0.001034937
0.001039327
0.001040685
0.001041157
0.001041319
0.001041356
0.001041339
0.002174786
0.0009785129
0.001022942
0.001039354
0.001044224
0.001045798
0.001046388
0.001046604
0.001046655
0.001046604
0.002206711
0.0009781672
0.001023364
0.001040115
0.001045146
0.0010468
0.001047429
0.001047665
0.001047722
0.001047666
0.00216909
0.0009753861
0.001022037
0.001038792
0.001043736
0.001045336
0.001045938
0.001046167
0.001046224
0.001046166
0.004649797
0.000971905
0.001017556
0.001033501
0.00103797
0.001039371
0.001039884
0.001040077
0.001040125
0.00104006
0.004776417
0.0009629025
0.001002714
0.001015257
0.001018614
0.001019652
0.001019997
0.001020134
0.00102018
0.001020061
0.004322717
0.0009377847
0.0009569693
0.0009636274
0.0009652566
0.0009659759
0.0009659657
0.0009660573
0.0009662771
0.0009659196
0.004784433
0.01224779
0.01223161
0.01223389
0.01223116
0.01223395
0.01223505
0.0122377
0.01223306
0.01223436
0.01238345
0.0124321
0.01233076
0.01238526
0.01252201
0.01237978
0.01250312
0.01243835
0.01235701
0.005171606
0.01226228
0.0122623
0.01226229
0.01226229
0.01226229
0.01226229
0.01226229
0.01226229
0.01226229
0.004695744
0.0009458504
0.0009694135
0.0009769128
0.0009787641
0.0009793971
0.0009796671
0.0009797785
0.0009798199
0.0009798358
0.004750804
0.0009612763
0.00100218
0.001014788
0.001018088
0.001019086
0.001019471
0.001019624
0.001019667
0.001019641
0.004751779
0.0009682275
0.001015026
0.001031117
0.001035578
0.00103696
0.00103748
0.001037682
0.001037735
0.001037695
0.004679304
0.0009704384
0.001018961
0.001036309
0.001041393
0.001043032
0.001043657
0.001043898
0.001043963
0.001043917
0.002123012
0.0009710235
0.001020178
0.001037994
0.001043358
0.001045135
0.001045823
0.001046089
0.001046163
0.001046116
0.0047084
0.0009710204
0.001020526
0.001038537
0.001044014
0.001045856
0.001046574
0.001046854
0.001046936
0.001046891
0.004679497
0.0009709986
0.001020623
0.001038717
0.001044229
0.0010461
0.001046836
0.001047131
0.001047224
0.001047186
0.001951997
0.0122782
0.004826998
0.01226624
0.00899267
0.004185959
0.01235132
0.001894943
0.008994762
0.004235374
0.004171319
0.01254185
0.01263884
0.00195439
0.001988602
0.004310922
0.004194345
0.004380816
0.0124965
0.01237821
0.002019607
0.002038917
0.008959825
0.004300869
0.004171603
0.01234337
0.01239096
0.002040138
0.002031733
0.008970495
0.004166099
0.004163355
0.01235648
0.01237887
0.002028096
0.002027574
0.008983431
0.004163362
0.004163872
0.01235434
0.01237143
0.002027561
0.002027747
0.009300106
0.004163229
0.004163429
0.01234786
0.01240225
0.002028059
0.002028183
0.004380857
0.004163026
0.004164073
0.01239804
0.01276268
0.002028097
0.002028136
0.008947278
0.004163799
0.004172218
0.01233712
0.01239217
0.00202864
0.0020309
0.004293489
0.00419433
0.004381681
0.0123584
0.01234662
0.002039362
0.00204834
0.001897548
0.001971458
0.005816664
0.0122622
0.004715442
0.01226322
0.001946335
0.001990935
0.004729308
0.01226232
0.004750272
0.01226236
0.00200136
0.002007476
0.004751082
0.01226238
0.004753497
0.01226238
0.002008552
0.002009311
0.004753487
0.01226239
0.004754012
0.01226239
0.002009421
0.002009532
0.004753967
0.01226239
0.00475414
0.01226239
0.002009532
0.002009548
0.004754102
0.01226239
0.004754138
0.01226239
0.002009494
0.002009428
0.004754104
0.01226239
0.004753873
0.01226239
0.002009305
0.002009212
0.004753633
0.01226239
0.004752667
0.01226239
0.01226933
0.004643095
0.01226611
0.01226908
0.004757168
0.01226612
0.01266258
0.001940089
0.01275411
0.001972647
0.01226866
0.004760117
0.01226599
0.01226897
0.004762168
0.01226606
0.01247388
0.00199388
0.01237259
0.002003868
0.01226864
0.004762878
0.01226601
0.01226897
0.004761639
0.01226601
0.01239317
0.002011025
0.01238852
0.006487151
0.002018667
0.01226864
0.004762052
0.01226602
0.01226897
0.004761876
0.01226602
0.01236673
0.00201447
0.01235233
0.006476715
0.00201789
0.01226864
0.00476241
0.01226603
0.01226897
0.004761693
0.01226602
0.01239142
0.006472296
0.002017433
0.01236361
0.004792341
0.002009469
0.01226864
0.004762106
0.012266
0.012269
0.004760738
0.01226603
0.0123886
0.002009367
0.01239141
0.006564598
0.002017187
0.01226866
0.004759718
0.01226607
0.01226905
0.004753369
0.01226611
0.01237994
0.005972398
0.002023033
0.01244791
0.005970768
0.002012896
0.01227191
0.004751904
0.01226647
0.0122695
0.004651412
0.01226644
0.01273546
0.006558327
0.001982187
0.01263047
0.006482318
0.00194659
0.01227644
0.004863372
0.01226518
0.001930548
0.01226848
0.01192578
0.01192418
0.001947792
0.002000976
0.01227078
0.0119231
0.01192236
0.002016365
0.002014958
0.01227042
0.01192445
0.01192497
0.002015209
0.002025233
0.01226201
0.01192098
0.01193092
0.004307254
0.002052083
0.002070657
0.01227455
0.01193165
0.01192164
0.004376061
0.002067441
0.002046545
0.01226952
0.01192471
0.0119228
0.004390627
0.002036184
0.002059003
0.01227475
0.01192905
0.01192175
0.004390806
0.002075041
0.002057675
0.01227071
0.01192621
0.01192577
0.00203059
0.002025497
0.01226559
0.0119164
0.011928
0.002044202
0.00205438
0.01222981
0.004788646
0.01225878
0.001940962
0.002001162
0.01223399
0.002159417
0.0122339
0.002037347
0.004664975
0.00207772
0.01222108
0.002160131
0.01222999
0.004642579
0.002098238
0.004628962
0.002104685
0.01222207
0.00219527
0.01223843
0.004631831
0.002103658
0.005006787
0.002091945
0.01222708
0.002154957
0.01223479
0.002079447
0.002076786
0.01224137
0.002109521
0.01224312
0.005007022
0.002083551
0.004670866
0.002084109
0.01223298
0.004785206
0.01225455
0.005003132
0.002060668
0.002029338
0.01223082
0.004472294
0.01225677
0.002016952
0.002006926
0.01221998
0.004723186
0.01225499
0.001993997
0.001941148
0.01225625
0.01228995
0.001952343
0.004102873
0.01232258
0.006513019
0.001896301
0.00981367
0.004123745
0.01236097
0.001957662
0.001994972
0.01025153
0.009918732
0.00423429
0.004261
0.01241336
0.002013486
0.002023251
0.00929136
0.009397357
0.004186747
0.004225613
0.012366
0.002026229
0.002028311
0.009453867
0.008993288
0.004134651
0.004167785
0.01243303
0.002027666
0.002027871
0.008928918
0.008916766
0.004166026
0.004166064
0.01236359
0.002027924
0.00202801
0.009022256
0.008981237
0.004165425
0.004164338
0.01233371
0.002028235
0.002028529
0.009089181
0.004342394
0.004164434
0.004164972
0.01238171
0.002028288
0.002028284
0.004341822
0.00902822
0.004164773
0.004164089
0.0124474
0.002028608
0.002029039
0.009040859
0.009022177
0.004163745
0.004166541
0.01233735
0.002031176
0.002030325
0.008963866
0.009460279
0.004177631
0.004221135
0.01226221
0.004640595
0.01226324
0.001895723
0.001977976
0.01226232
0.004748573
0.01226236
0.001947878
0.001989986
0.01226238
0.00475319
0.01226238
0.002000204
0.002006325
0.01226239
0.004719616
0.01226239
0.002007623
0.002011213
0.01226239
0.004699184
0.01226239
0.002018175
0.002021061
0.01226145
0.002124768
0.01226145
0.002027594
0.002027397
0.01226239
0.004715892
0.01226239
0.002018471
0.002013478
0.01226239
0.004677157
0.01226239
0.002017805
0.002011901
0.01225291
0.003888898
0.004803764
0.001997026
0.002128794
0.01227244
0.01226398
0.01192072
0.01193042
0.002142835
0.002174611
0.002256933
0.01226015
0.0122603
0.01192837
0.01192425
0.002186522
0.002290038
0.002302754
0.0122602
0.01226007
0.01192445
0.01192282
0.002193802
0.002307564
0.002309554
0.01226005
0.01226005
0.01192199
0.01192165
0.002194736
0.002310335
0.002310689
0.01226005
0.01226005
0.01192166
0.01192164
0.002194845
0.002310823
0.00231089
0.01226005
0.01226005
0.01192167
0.01192169
0.002194868
0.00231092
0.00231094
0.01226006
0.01226006
0.01192187
0.0119219
0.002194872
0.002310938
0.002310943
0.01226006
0.01226006
0.0119221
0.01192212
0.002194866
0.002310933
0.002310924
0.01226007
0.01226007
0.01192235
0.01192238
0.001984365
0.004642393
0.002067078
0.004576692
0.01223015
0.002135062
0.0122391
0.00209231
0.004624572
0.002104356
0.00209767
0.01222189
0.002148394
0.01222854
0.002107348
0.004624762
0.002108857
0.002160335
0.01222784
0.002167414
0.01223095
0.002109261
0.004624852
0.002109502
0.002168618
0.01222431
0.002169426
0.01223335
0.002109549
0.004624939
0.002109594
0.002169505
0.01222464
0.002169613
0.01223343
0.002109537
0.004625012
0.002109395
0.002169564
0.01222371
0.002169495
0.01223382
0.002109141
0.004625061
0.002108026
0.0021693
0.01222305
0.002168419
0.01223525
0.002106227
0.004624273
0.002097259
0.002167007
0.01222165
0.002159383
0.01223751
0.002081336
0.004630383
0.002014111
0.002147365
0.01219814
0.002093913
0.01224376
0.00199748
0.003996893
0.002137459
0.01225224
0.01231233
0.002022748
0.004010838
0.004023389
0.01222643
0.01222518
0.01239591
0.01245227
0.002053288
0.004033627
0.004308657
0.01222819
0.01223269
0.0123509
0.01234968
0.002048676
0.004312751
0.00403584
0.01223537
0.01222986
0.01229238
0.0124177
0.002044001
0.004023006
0.004023859
0.01223064
0.01223078
0.01237618
0.01243
0.002044205
0.004023203
0.004023001
0.01223177
0.01223145
0.01238514
0.01241034
0.002052543
0.004025039
0.004089893
0.01223184
0.01223067
0.01239147
0.01246772
0.002054348
0.00435677
0.004039309
0.01224088
0.01223075
0.0123152
0.0124625
0.002056487
0.00403481
0.004313068
0.01223189
0.01223967
0.01237246
0.01230719
0.009007926
0.01231797
0.008991642
0.01237452
0.01235195
0.009301921
0.01235091
0.01250307
0.008982322
0.01239517
0.01234635
0.008977046
0.0124197
0.01236353
0.008996593
0.01241572
0.01234193
0.009304493
0.01238441
0.01255154
0.01225998
0.003914671
0.01225995
0.00401275
0.001962932
0.002023792
0.002100013
0.01226228
0.01226229
0.01226237
0.01226238
0.001990734
0.002121069
0.002132314
0.0122623
0.01226231
0.01226241
0.0122624
0.001978423
0.002134056
0.002133195
0.0122623
0.0122623
0.0122624
0.01226239
0.001974105
0.00213238
0.002132148
0.01226229
0.01226229
0.01226239
0.01226238
0.001973937
0.002132116
0.002132123
0.01226229
0.01226229
0.01226238
0.01226238
0.001973501
0.002132094
0.002132105
0.01226229
0.01226229
0.01226238
0.01226238
0.001973869
0.00213216
0.002132261
0.01226229
0.01226229
0.01226238
0.01226238
0.001975454
0.002132511