/*--------------------------------*- C++ -*----------------------------------*\
  =========                 |
  \\      /  F ield         | OpenFOAM: The Open Source CFD Toolbox
   \\    /   O peration     | Website:  https://openfoam.org
    \\  /    A nd           | Version:  7
     \\/     M anipulation  |
\*---------------------------------------------------------------------------*/
FoamFile
{
    version     2.0;
    format      ascii;
    class       volScalarField;
    location    "0.01";
    object      k;
}
// * * * * * * * * * * * * * * * * * * * * * * * * * * * * * * * * * * * * * //

dimensions      [0 2 -2 0 0 0 0];

internalField   nonuniform List<scalar> 
109978
(
0.003748634
0.003748764
0.003748605
0.003748495
0.003748377
0.003748259
0.00374861
0.003748848
0.003748646
0.00374852
0.003748392
0.003748264
0.00374861
0.003748872
0.00374866
0.00374853
0.003748399
0.003748271
0.003748624
0.003748882
0.003748674
0.003748542
0.003748412
0.003748283
0.00374865
0.003748895
0.003748687
0.003748557
0.003748426
0.003748297
0.003748682
0.003748911
0.003748704
0.003748573
0.003748442
0.003748314
0.003748714
0.003748932
0.003748726
0.003748594
0.003748463
0.003748334
0.003748757
0.003748958
0.003748751
0.003748618
0.003748486
0.003748358
0.003748805
0.003748991
0.003748781
0.003748646
0.003748514
0.003748385
0.003748854
0.003749027
0.003748813
0.003748677
0.003748544
0.003748415
0.003748902
0.003749066
0.003748849
0.003748712
0.003748578
0.003748448
0.003748952
0.003749109
0.003748887
0.00374875
0.003748616
0.003748486
0.003749004
0.003749156
0.00374893
0.003748792
0.003748657
0.003748526
0.003749057
0.003749202
0.003748976
0.003748837
0.003748702
0.00374857
0.003749112
0.003749251
0.003749025
0.003748886
0.00374875
0.003748617
0.00374917
0.003749304
0.003749078
0.003748938
0.003748801
0.003748668
0.00374923
0.00374936
0.003749135
0.003748994
0.003748856
0.003748721
0.003749293
0.00374942
0.003749196
0.003749053
0.003748914
0.003748778
0.003749361
0.003749485
0.00374926
0.003749116
0.003748976
0.003748839
0.00374943
0.003749552
0.003749328
0.003749183
0.003749041
0.003748902
0.003749505
0.003749624
0.003749401
0.003749253
0.00374911
0.003748969
0.003749582
0.0037497
0.003749477
0.003749328
0.003749182
0.00374904
0.003713456
0.003749784
0.003749558
0.003749406
0.003749259
0.003749114
0.003748563
0.003748736
0.003748554
0.003748429
0.003748301
0.003748173
0.003714383
0.003713265
0.003713013
0.003713012
0.00371301
0.00371301
0.003714107
0.003713103
0.00371302
0.003713011
0.003713009
0.003713009
0.003714034
0.003713094
0.003713022
0.003713011
0.00371301
0.00371301
0.003714001
0.003713102
0.003713021
0.003713012
0.003713011
0.003713011
0.003713973
0.003713106
0.00371302
0.003713013
0.003713012
0.003713012
0.003714024
0.003713092
0.003713019
0.003713014
0.003713013
0.003713013
0.003713839
0.00371308
0.003713019
0.003713015
0.003713014
0.003713014
0.003713563
0.003713068
0.003713019
0.003713016
0.003713015
0.003713015
0.003713534
0.003713059
0.003713019
0.003713018
0.003713017
0.003713017
0.00371354
0.003713055
0.00371302
0.003713019
0.003713018
0.003713018
0.003713547
0.003713054
0.003713021
0.00371302
0.003713019
0.003713019
0.003713558
0.003713054
0.003713022
0.003713022
0.00371302
0.00371302
0.003713569
0.003713054
0.003713023
0.003713023
0.003713021
0.003713021
0.003713578
0.003713054
0.003713025
0.003713024
0.003713022
0.003713022
0.003713592
0.003713055
0.003713026
0.003713025
0.003713024
0.003713024
0.003713618
0.003713056
0.003713027
0.003713027
0.003713025
0.003713025
0.003713643
0.003713057
0.003713028
0.003713028
0.003713026
0.003713026
0.003713667
0.003713059
0.00371303
0.00371303
0.003713028
0.003713027
0.003713682
0.003713061
0.003713031
0.003713031
0.003713029
0.003713029
0.0037137
0.003713063
0.003713033
0.003713032
0.00371303
0.00371303
0.003713716
0.003713065
0.003713034
0.003713034
0.003713032
0.003713031
0.003713731
0.003713069
0.003713036
0.003713036
0.003713033
0.003713033
0.003713541
0.003713074
0.003713037
0.003713037
0.003713035
0.003713034
0.003748529
0.003748875
0.003748655
0.003748521
0.003748386
0.003748255
0.003714409
0.003713149
0.003713018
0.003713008
0.003713007
0.003713008
0.003714515
0.003713076
0.003713014
0.003713011
0.003713007
0.003713008
0.003713577
0.003713078
0.003713011
0.003713013
0.003713008
0.003713009
0.003713851
0.003713084
0.003713011
0.003713014
0.003713009
0.00371301
0.00371369
0.003713074
0.003713012
0.003713014
0.00371301
0.003713011
0.003713628
0.003713064
0.003713013
0.003713015
0.003713011
0.003713012
0.003713579
0.003713054
0.003713014
0.003713015
0.003713012
0.003713013
0.003713543
0.003713047
0.003713015
0.003713016
0.003713013
0.003713014
0.00371351
0.003713045
0.003713016
0.003713017
0.003713015
0.003713015
0.003713529
0.003713044
0.003713017
0.003713018
0.003713016
0.003713016
0.003713535
0.003713043
0.003713018
0.003713019
0.003713017
0.003713017
0.003713531
0.003713042
0.003713019
0.00371302
0.003713018
0.003713018
0.003713521
0.003713043
0.00371302
0.003713022
0.00371302
0.003713019
0.003713504
0.003713043
0.003713022
0.003713023
0.003713021
0.003713021
0.003713496
0.003713044
0.003713023
0.003713024
0.003713022
0.003713022
0.003713494
0.003713046
0.003713024
0.003713026
0.003713023
0.003713023
0.003713496
0.003713047
0.003713026
0.003713027
0.003713025
0.003713024
0.003713497
0.003713048
0.003713027
0.003713028
0.003713026
0.003713026
0.003713499
0.003713049
0.003713028
0.00371303
0.003713027
0.003713027
0.0037135
0.00371305
0.00371303
0.003713031
0.003713028
0.003713028
0.003713503
0.003713052
0.003713031
0.003713032
0.00371303
0.00371303
0.003713508
0.003713053
0.003713032
0.003713034
0.003713031
0.003713031
0.003713513
0.003713055
0.003713034
0.003713035
0.003713032
0.003713033
0.003748456
0.003748909
0.003748672
0.003748529
0.003748391
0.003748257
0.00371371
0.003713122
0.00371302
0.003713007
0.003713007
0.003713008
0.003713732
0.003713165
0.003713008
0.003713014
0.003713007
0.003713008
0.003713547
0.003713066
0.003713011
0.003713011
0.003713009
0.003713009
0.003713518
0.003713045
0.00371301
0.003713011
0.003713009
0.00371301
0.003713501
0.003713039
0.003713011
0.003713012
0.00371301
0.003713011
0.003713498
0.003713037
0.003713012
0.003713013
0.003713011
0.003713012
0.003713506
0.003713037
0.003713013
0.003713014
0.003713012
0.003713013
0.003713514
0.003713036
0.003713014
0.003713015
0.003713014
0.003713014
0.003713505
0.003713038
0.003713015
0.003713017
0.003713015
0.003713015
0.003713527
0.003713039
0.003713016
0.003713018
0.003713016
0.003713016
0.003713516
0.003713042
0.003713017
0.003713019
0.003713017
0.003713017
0.003713513
0.003713043
0.003713018
0.003713021
0.003713018
0.003713018
0.003713513
0.003713042
0.00371302
0.003713022
0.00371302
0.003713019
0.003713507
0.003713043
0.003713021
0.003713023
0.003713021
0.003713021
0.003713512
0.003713044
0.003713022
0.003713024
0.003713022
0.003713022
0.003713513
0.003713045
0.003713023
0.003713025
0.003713023
0.003713023
0.003713512
0.003713046
0.003713024
0.003713027
0.003713024
0.003713024
0.00371351
0.003713047
0.003713026
0.003713028
0.003713026
0.003713026
0.00371351
0.003713048
0.003713027
0.003713029
0.003713027
0.003713027
0.003713512
0.003713049
0.003713028
0.003713031
0.003713028
0.003713028
0.003713517
0.003713051
0.00371303
0.003713032
0.00371303
0.00371303
0.003713523
0.003713052
0.003713031
0.003713033
0.003713031
0.003713031
0.003713531
0.003713053
0.003713032
0.003713035
0.003713032
0.003713033
0.003748441
0.003748915
0.003748679
0.00374854
0.003748399
0.003748262
0.003713648
0.00371312
0.003713021
0.003713007
0.003713007
0.003713008
0.003713879
0.003713164
0.003713008
0.003713014
0.003713007
0.003713008
0.003713544
0.003713043
0.003713011
0.003713011
0.003713009
0.003713009
0.003713494
0.003713034
0.00371301
0.003713012
0.00371301
0.00371301
0.003713481
0.003713035
0.003713011
0.003713012
0.00371301
0.003713011
0.003713485
0.003713035
0.003713012
0.003713013
0.003713011
0.003713012
0.003713501
0.003713035
0.003713013
0.003713014
0.003713012
0.003713013
0.003713513
0.003713035
0.003713014
0.003713015
0.003713014
0.003713014
0.003713503
0.003713037
0.003713015
0.003713017
0.003713015
0.003713015
0.003713526
0.003713037
0.003713016
0.003713018
0.003713016
0.003713016
0.00371352
0.003713038
0.003713017
0.003713019
0.003713017
0.003713017
0.003713527
0.00371304
0.003713018
0.003713021
0.003713019
0.003713018
0.003713535
0.003713042
0.00371302
0.003713022
0.00371302
0.00371302
0.003713529
0.003713044
0.003713021
0.003713023
0.003713021
0.003713021
0.003713532
0.003713045
0.003713022
0.003713025
0.003713022
0.003713022
0.003713532
0.003713046
0.003713023
0.003713026
0.003713023
0.003713023
0.00371353
0.003713047
0.003713025
0.003713027
0.003713025
0.003713024
0.003713527
0.003713048
0.003713026
0.003713028
0.003713026
0.003713026
0.003713525
0.00371305
0.003713027
0.00371303
0.003713027
0.003713027
0.003713527
0.003713051
0.003713028
0.003713031
0.003713028
0.003713028
0.003713531
0.003713052
0.00371303
0.003713032
0.00371303
0.00371303
0.003713537
0.003713053
0.003713031
0.003713034
0.003713031
0.003713031
0.003713545
0.003713054
0.003713032
0.003713035
0.003713032
0.003713033
0.003748441
0.003748916
0.003748682
0.003748539
0.003748399
0.003748262
0.003713696
0.00371312
0.003713021
0.003713007
0.003713007
0.003713008
0.003713771
0.003713164
0.003713008
0.003713014
0.003713007
0.003713008
0.003713609
0.003713042
0.003713011
0.003713011
0.003713009
0.003713009
0.003713491
0.003713034
0.00371301
0.003713012
0.00371301
0.00371301
0.003713479
0.003713035
0.003713011
0.003713012
0.00371301
0.003713011
0.003713485
0.003713035
0.003713012
0.003713013
0.003713011
0.003713012
0.003713503
0.003713035
0.003713013
0.003713014
0.003713012
0.003713013
0.003713516
0.003713035
0.003713014
0.003713015
0.003713014
0.003713014
0.003713505
0.003713037
0.003713015
0.003713017
0.003713015
0.003713015
0.003713528
0.003713037
0.003713016
0.003713018
0.003713016
0.003713016
0.003713521
0.003713038
0.003713017
0.003713019
0.003713017
0.003713017
0.003713526
0.00371304
0.003713019
0.003713021
0.003713019
0.003713018
0.003713539
0.003713042
0.00371302
0.003713022
0.00371302
0.00371302
0.003713543
0.003713044
0.003713021
0.003713023
0.003713021
0.003713021
0.003713544
0.003713045
0.003713022
0.003713025
0.003713022
0.003713022
0.003713545
0.003713046
0.003713023
0.003713026
0.003713023
0.003713023
0.003713541
0.003713047
0.003713025
0.003713027
0.003713025
0.003713024
0.003713538
0.003713048
0.003713026
0.003713028
0.003713026
0.003713026
0.003713535
0.00371305
0.003713027
0.00371303
0.003713027
0.003713027
0.003713536
0.003713051
0.003713028
0.003713031
0.003713028
0.003713028
0.003713539
0.003713052
0.00371303
0.003713032
0.00371303
0.00371303
0.003713545
0.003713053
0.003713031
0.003713034
0.003713031
0.003713031
0.003713552
0.003713054
0.003713032
0.003713035
0.003713032
0.003713033
0.003748462
0.003748911
0.003748674
0.003748534
0.003748394
0.003748258
0.00371366
0.003713122
0.00371302
0.003713007
0.003713007
0.003713008
0.003714087
0.003713165
0.003713008
0.003713014
0.003713007
0.003713008
0.003713502
0.003713066
0.003713011
0.003713011
0.003713009
0.003713009
0.003713498
0.003713045
0.00371301
0.003713011
0.003713009
0.00371301
0.003713485
0.003713039
0.003713011
0.003713012
0.00371301
0.003713011
0.003713484
0.003713037
0.003713012
0.003713013
0.003713011
0.003713012
0.0037135
0.003713037
0.003713013
0.003713014
0.003713012
0.003713013
0.00371351
0.003713036
0.003713014
0.003713015
0.003713014
0.003713014
0.003713501
0.003713038
0.003713015
0.003713017
0.003713015
0.003713015
0.003713523
0.003713039
0.003713016
0.003713018
0.003713016
0.003713016
0.003713517
0.003713042
0.003713017
0.003713019
0.003713017
0.003713017
0.003713521
0.003713043
0.003713019
0.003713021
0.003713018
0.003713018
0.003713523
0.003713042
0.00371302
0.003713022
0.00371302
0.003713019
0.00371352
0.003713043
0.003713021
0.003713023
0.003713021
0.003713021
0.003713524
0.003713044
0.003713022
0.003713024
0.003713022
0.003713022
0.003713526
0.003713045
0.003713023
0.003713026
0.003713023
0.003713023
0.003713524
0.003713046
0.003713025
0.003713027
0.003713024
0.003713024
0.003713523
0.003713047
0.003713026
0.003713028
0.003713026
0.003713026
0.003713521
0.003713048
0.003713027
0.003713029
0.003713027
0.003713027
0.003713524
0.003713049
0.003713029
0.003713031
0.003713028
0.003713028
0.003713528
0.003713051
0.00371303
0.003713032
0.00371303
0.00371303
0.003713534
0.003713052
0.003713031
0.003713034
0.003713031
0.003713031
0.003713543
0.003713053
0.003713033
0.003713035
0.003713032
0.003713033
0.003748509
0.003748894
0.003748659
0.003748521
0.003748385
0.003748252
0.003714009
0.003713148
0.003713019
0.003713008
0.003713007
0.003713008
0.003714527
0.003713076
0.003713014
0.003713011
0.003713007
0.003713008
0.003713812
0.003713078
0.003713011
0.003713013
0.003713008
0.003713009
0.003713596
0.003713084
0.003713011
0.003713014
0.003713009
0.00371301
0.003713521
0.003713073
0.003713012
0.003713014
0.00371301
0.003713011
0.00371351
0.003713064
0.003713013
0.003713015
0.003713011
0.003713012
0.003713509
0.003713054
0.003713014
0.003713015
0.003713012
0.003713013
0.003713508
0.003713047
0.003713015
0.003713016
0.003713013
0.003713014
0.003713505
0.003713045
0.003713016
0.003713017
0.003713015
0.003713015
0.003713533
0.003713044
0.003713017
0.003713018
0.003713016
0.003713016
0.003713528
0.003713043
0.003713018
0.003713019
0.003713017
0.003713017
0.003713523
0.003713042
0.00371302
0.00371302
0.003713018
0.003713018
0.003713521
0.003713043
0.003713021
0.003713022
0.00371302
0.003713019
0.003713517
0.003713043
0.003713022
0.003713023
0.003713021
0.003713021
0.003713513
0.003713044
0.003713023
0.003713024
0.003713022
0.003713022
0.003713509
0.003713045
0.003713025
0.003713026
0.003713023
0.003713023
0.003713506
0.003713046
0.003713026
0.003713027
0.003713025
0.003713024
0.003713504
0.003713048
0.003713027
0.003713028
0.003713026
0.003713026
0.003713506
0.003713049
0.003713029
0.00371303
0.003713027
0.003713027
0.003713508
0.00371305
0.00371303
0.003713031
0.003713028
0.003713028
0.003713513
0.003713052
0.003713031
0.003713032
0.00371303
0.00371303
0.003713519
0.003713053
0.003713033
0.003713034
0.003713031
0.003713031
0.003713527
0.003713055
0.003713034
0.003713035
0.003713033
0.003713033
0.003748543
0.003748809
0.003748606
0.00374849
0.003748356
0.003748227
0.003714827
0.003713265
0.003713013
0.003713012
0.00371301
0.00371301
0.003714209
0.003713103
0.00371302
0.00371301
0.003713009
0.003713009
0.003713793
0.003713093
0.003713022
0.003713011
0.00371301
0.00371301
0.003713843
0.003713102
0.003713021
0.003713012
0.003713011
0.003713011
0.00371384
0.003713105
0.00371302
0.003713013
0.003713012
0.003713012
0.003713783
0.003713092
0.003713019
0.003713014
0.003713013
0.003713013
0.003713695
0.00371308
0.003713019
0.003713015
0.003713014
0.003713014
0.003713585
0.003713068
0.003713019
0.003713016
0.003713015
0.003713015
0.003713521
0.003713059
0.003713019
0.003713018
0.003713016
0.003713017
0.003713531
0.003713055
0.00371302
0.003713019
0.003713018
0.003713018
0.003713528
0.003713054
0.003713021
0.00371302
0.003713019
0.003713019
0.00371352
0.003713054
0.003713022
0.003713021
0.00371302
0.00371302
0.003713515
0.003713054
0.003713023
0.003713023
0.003713021
0.003713021
0.003713513
0.003713054
0.003713025
0.003713024
0.003713022
0.003713022
0.003713512
0.003713055
0.003713026
0.003713025
0.003713024
0.003713024
0.003713513
0.003713056
0.003713027
0.003713027
0.003713025
0.003713025
0.003713514
0.003713057
0.003713028
0.003713028
0.003713026
0.003713026
0.003713515
0.003713059
0.00371303
0.00371303
0.003713028
0.003713027
0.003713516
0.00371306
0.003713031
0.003713031
0.003713029
0.003713029
0.003713517
0.003713062
0.003713032
0.003713032
0.00371303
0.00371303
0.003713519
0.003713065
0.003713034
0.003713034
0.003713032
0.003713031
0.003713522
0.003713069
0.003713036
0.003713035
0.003713033
0.003713033
0.003713541
0.003713073
0.003713037
0.003713037
0.003713034
0.003713034
0.003749341
0.003751611
0.003751089
0.003750596
0.003750081
0.003749579
0.003718148
0.003713173
0.003713133
0.003713121
0.003713119
0.003713114
0.003713111
0.003728309
0.003713433
0.003713133
0.003713119
0.003713116
0.003713112
0.003713108
0.003721412
0.003713438
0.003713139
0.003713123
0.00371312
0.003713115
0.003713112
0.003718272
0.003713423
0.003713143
0.003713127
0.003713124
0.003713119
0.003713116
0.003716404
0.003713399
0.003713147
0.003713131
0.003713128
0.003713123
0.003713119
0.003715412
0.003713384
0.003713151
0.003713134
0.003713131
0.003713127
0.003713123
0.003715017
0.00371337
0.003713155
0.003713137
0.003713134
0.00371313
0.003713126
0.003714779
0.003713359
0.00371316
0.003713141
0.003713137
0.003713133
0.003713129
0.00371462
0.003713353
0.003713164
0.003713145
0.00371314
0.003713136
0.003713132
0.003714636
0.003713346
0.003713168
0.003713149
0.003713143
0.003713139
0.003713135
0.003714704
0.003713334
0.003713172
0.003713153
0.003713147
0.003713143
0.003713138
0.00371475
0.003713322
0.003713176
0.003713157
0.003713151
0.003713146
0.003713142
0.003714793
0.003713312
0.003713181
0.003713161
0.003713155
0.00371315
0.003713146
0.003714869
0.003713308
0.003713185
0.003713165
0.003713158
0.003713154
0.003713149
0.003714952
0.003713305
0.00371319
0.003713169
0.003713162
0.003713158
0.003713153
0.003714927
0.003713303
0.003713195
0.003713173
0.003713167
0.003713162
0.003713157
0.003714906
0.003713301
0.003713199
0.003713177
0.003713171
0.003713166
0.003713161
0.003714933
0.0037133
0.003713204
0.003713182
0.003713175
0.00371317
0.003713165
0.003714992
0.003713299
0.003713209
0.003713186
0.003713179
0.003713174
0.003713169
0.003715039
0.003713299
0.003713214
0.003713191
0.003713183
0.003713178
0.003713173
0.003715102
0.003713299
0.003713219
0.003713195
0.003713188
0.003713182
0.003713177
0.003715219
0.0037133
0.003713224
0.0037132
0.003713192
0.003713186
0.003713181
0.003715344
0.003749432
0.00371323
0.003713204
0.003713197
0.003713191
0.003713185
0.003749247
0.003751846
0.003715451
0.003714512
0.003748336
0.00374819
0.003718133
0.003715239
0.003733681
0.003716426
0.003748448
0.003748171
0.003728308
0.00371635
0.003714471
0.00371627
0.003748541
0.003748134
0.003721404
0.003716097
0.003714745
0.003715955
0.0037486
0.003748097
0.003718262
0.003715788
0.003715201
0.003715629
0.003748658
0.003748073
0.003716392
0.003715475
0.003716215
0.00371532
0.003748729
0.003748054
0.003715399
0.003715191
0.003717531
0.003715046
0.003748799
0.003748058
0.003715002
0.003714974
0.003716606
0.003714827
0.003748905
0.003748084
0.003714764
0.003714681
0.003716596
0.003714541
0.003749035
0.00374812
0.003714604
0.003714327
0.003716639
0.003714366
0.003749178
0.003748167
0.003714618
0.003714149
0.003716914
0.003714272
0.003749323
0.003748225
0.003714684
0.003714037
0.003717192
0.003714196
0.003749478
0.003748292
0.003714729
0.003713953
0.003717551
0.003714135
0.003749649
0.003748369
0.003714771
0.003713903
0.003717921
0.003714105
0.003749831
0.003748457
0.003714845
0.003713864
0.00371827
0.003714076
0.003750019
0.00374855
0.003714925
0.003713834
0.003718719
0.003714052
0.003750211
0.003748653
0.0037149
0.003713812
0.003719135
0.003714035
0.003750412
0.00374877
0.003714875
0.003713797
0.003719479
0.00371402
0.003750622
0.0037489
0.003714902
0.003713784
0.00371972
0.003714004
0.00375084
0.003749042
0.003714959
0.003713771
0.003719983
0.003713986
0.003751066
0.003749198
0.003715005
0.003713763
0.00372025
0.003713964
0.003751299
0.003749367
0.003715068
0.003713752
0.003720458
0.003713944
0.00375154
0.00374955
0.003715182
0.003713736
0.003720654
0.003713929
0.003751792
0.003714026
0.003715307
0.003713721
0.003720783
0.003713916
0.00374918
0.003718606
0.00371481
0.003749329
0.003729917
0.003716169
0.003749428
0.003714926
0.003715378
0.0037494
0.003724875
0.003715348
0.003749453
0.003714358
0.003715223
0.003749406
0.003722831
0.003715025
0.003749444
0.003714455
0.003714867
0.003749419
0.003714501
0.003714956
0.003749435
0.003724478
0.003715022
0.003749451
0.003714434
0.003714972
0.003749472
0.003724237
0.003715087
0.003749449
0.003714364
0.003715138
0.003749383
0.00372516
0.003715336
0.003749413
0.003714804
0.003715381
0.003749379
0.003729913
0.003716152
0.003749171
0.003718686
0.003714808
0.003751863
0.003715443
0.00371451
0.003749248
0.003751577
0.003713092
0.003713161
0.003749142
0.003749704
0.003751123
0.003713138
0.003713096
0.003749828
0.003749423
0.003750692
0.003713111
0.003713103
0.003749475
0.003749116
0.003750178
0.003713109
0.003713097
0.003749157
0.003748799
0.003749682
0.003713103
0.003713093
0.003748833
0.003748476
0.003713098
0.003748516
0.003715241
0.003733684
0.003716427
0.003748335
0.00374819
0.00371635
0.003714471
0.00371627
0.003748448
0.003748171
0.003716097
0.003714745
0.003715955
0.003748541
0.003748134
0.003715788
0.003715201
0.003715629
0.0037486
0.003748097
0.003715475
0.003716215
0.00371532
0.003748658
0.003748073
0.003715191
0.003717531
0.003715047
0.003748729
0.003748054
0.003714689
0.003716598
0.003714541
0.003748906
0.003748084
0.003714328
0.003716639
0.003714366
0.003749035
0.003748119
0.00371415
0.003716914
0.003714273
0.003749178
0.003748166
0.003714038
0.003717192
0.003714196
0.003749323
0.003748224
0.003713953
0.003717551
0.003714135
0.003749478
0.003748291
0.003713903
0.00371792
0.003714105
0.003749649
0.003748369
0.003713864
0.003718266
0.003714077
0.003749831
0.003748456
0.003713834
0.00371872
0.003714052
0.003750019
0.003748549
0.003713812
0.003719132
0.003714035
0.003750212
0.003748653
0.003713797
0.003719479
0.00371402
0.003750412
0.003748769
0.003713784
0.003719721
0.003714004
0.003750622
0.003748899
0.003713771
0.003719984
0.003713986
0.003750841
0.003749041
0.003713763
0.003720253
0.003713964
0.003751066
0.003749198
0.003713753
0.00372046
0.003713944
0.0037513
0.003749367
0.003713736
0.003720664
0.003713928
0.003751541
0.003749551
0.003713722
0.003720791
0.003713917
0.003751793
0.003714026
0.003719848
0.003749822
0.003749141
0.003749704
0.003749335
0.003751577
0.003713092
0.003713161
0.003749827
0.003749422
0.003751614
0.003751123
0.003713139
0.003713096
0.003749475
0.003749116
0.003751091
0.003750692
0.003713111
0.003713103
0.003749157
0.003748799
0.003750598
0.003750179
0.003713109
0.003713097
0.003748833
0.003748476
0.003750082
0.003749682
0.003713103
0.003713093
0.003748516
0.003749578
0.003713098
0.00371785
0.003745879
0.003715151
0.003745524
0.003715315
0.003746852
0.003716057
0.003747214
0.003715074
0.003747961
0.003715564
0.003747578
0.003714764
0.003748593
0.003715029
0.003747687
0.003714192
0.003749059
0.003714718
0.003747787
0.003713586
0.003749476
0.003714614
0.003747836
0.003713505
0.003749783
0.003714564
0.003747805
0.003713538
0.003750079
0.003714495
0.003747748
0.003713494
0.003750449
0.003714467
0.003747685
0.003713471
0.003750895
0.003714367
0.00374766
0.003713496
0.003751295
0.003714219
0.003747705
0.003713557
0.003751663
0.00371417
0.003747804
0.003713641
0.003752031
0.003714191
0.003747948
0.003713666
0.003752383
0.003714225
0.003748155
0.003713658
0.003752731
0.003714275
0.003748398
0.00371365
0.003753043
0.003714337
0.003748681
0.003713653
0.00375334
0.003714402
0.00374901
0.003713658
0.00375363
0.00371446
0.003749358
0.003713667
0.003753911
0.003714499
0.003749748
0.003713677
0.003754231
0.003714539
0.003750163
0.003713698
0.003754632
0.00371456
0.00375061
0.003713727
0.003755115
0.003714561
0.003751095
0.00371376
0.003755662
0.003714566
0.003751609
0.003717108
0.003715378
0.003721728
0.003720754
0.003724849
0.00372525
0.003726121
0.003725346
0.003725727
0.003725548
0.003725551
0.003725953
0.003724072
0.003723628
0.003718807
0.003718959
0.003715112
0.003718252
0.003714974
0.003716605
0.003714828
0.003748799
0.003748058
0.003717397
0.00375306
0.003715002
0.003749439
0.003714972
0.003745314
0.003718878
0.003744079
0.003715233
0.003717863
0.003716914
0.003746457
0.003715538
0.003745217
0.003715974
0.003747381
0.00371514
0.003747738
0.003715326
0.00374759
0.003714888
0.003748335
0.003714847
0.003747721
0.003714586
0.003748787
0.00371461
0.003747796
0.003713767
0.003749293
0.003714512
0.003747782
0.00371353
0.003749639
0.003714528
0.003747716
0.00371356
0.003749879
0.003714455
0.003747608
0.003713517
0.003750197
0.003714452
0.003747599
0.003713534
0.003750587
0.003714292
0.003747562
0.003713503
0.003750993
0.003714192
0.003747616
0.003713551
0.003751343
0.003714156
0.003747716
0.00371362
0.003751701
0.003714168
0.003747884
0.003713645
0.00375206
0.003714183
0.003748071
0.003713644
0.003752416
0.003714217
0.003748307
0.003713643
0.003752742
0.003714271
0.003748586
0.003713649
0.003753023
0.003714302
0.003748927
0.003713659
0.003753304
0.00371432
0.003749312
0.003713669
0.003753595
0.003714334
0.003749742
0.003713683
0.003753884
0.003714351
0.003750181
0.003713706
0.003754201
0.00371436
0.003750648
0.003713738
0.003754594
0.00371437
0.003751149
0.003713778
0.003755055
0.003714383
0.00375168
0.0037215
0.003755545
0.003713806
0.003718854
0.003718686
0.00372434
0.003723806
0.003726294
0.003726416
0.003725319
0.00372696
0.003726375
0.003726303
0.003724782
0.003724722
0.003721688
0.003721444
0.003717092
0.003715236
0.003719729
0.003749906
0.003717368
0.003753064
0.003715002
0.003749501
0.003714947
0.003745285
0.003718894
0.003744131
0.003713633
0.003753405
0.003713538
0.003752501
0.003713457
0.003753186
0.003713625
0.003752869
0.003713508
0.003753525
0.003713545
0.003752522
0.003713498
0.003752602
0.003713509
0.003752724
0.003713485
0.003752881
0.00371355
0.003751808
0.003713483
0.003751873
0.003713486
0.003752005
0.003713463
0.003752149
0.00371353
0.00375108
0.003713463
0.003751123
0.003713463
0.003751275
0.003713445
0.003751391
0.003713506
0.003750342
0.003713427
0.003750639
0.003713546
0.003717848
0.003745886
0.003715167
0.003745518
0.003716913
0.003746455
0.003715538
0.003745212
0.003715315
0.003746849
0.00371605
0.003747212
0.003715974
0.00374738
0.003715141
0.003747736
0.003715074
0.003747958
0.003715559
0.003747578
0.003715325
0.00374759
0.003714888
0.003748335
0.003714764
0.003748593
0.003715022
0.003747687
0.003714847
0.00374772
0.003714587
0.003748788
0.003714193
0.003749058
0.003714709
0.003747786
0.00371461
0.003747795
0.003713767
0.003749294
0.003713586
0.003749475
0.003714603
0.003747835
0.003714512
0.003747781
0.00371353
0.003749639
0.003713539
0.00375008
0.003714494
0.003747747
0.003714455
0.003747608
0.003713517
0.003750198
0.003713494
0.003750447
0.00371445
0.003747685
0.003714452
0.003747599
0.003713534
0.003750587
0.003713471
0.003750893
0.003714347
0.003747661
0.003714293
0.003747563
0.003713503
0.003750993
0.003713496
0.003751293
0.003714199
0.003747705
0.003714194
0.003747615
0.003713552
0.003751342
0.003713556
0.003751659
0.003714146
0.003747804
0.003714156
0.003747716
0.00371362
0.003751702
0.003713641
0.003752027
0.003714166
0.003747947
0.003714168
0.003747882
0.003713644
0.00375206
0.003713666
0.003752379
0.003714198
0.003748156
0.003714184
0.003748071
0.003713644
0.003752417
0.003713658
0.003752728
0.003714246
0.003748398
0.003714217
0.003748306
0.003713643
0.003752742
0.003714304
0.003748586
0.003713649
0.003753026
0.003713652
0.003753339
0.00371437
0.00374901
0.003714302
0.003748927
0.003713659
0.003753304
0.003713658
0.003753627
0.003714425
0.003749359
0.003714322
0.003749311
0.003713669
0.003753598
0.003713667
0.003753914
0.003714465
0.003749747
0.003714336
0.003749741
0.003713683
0.003753885
0.003713677
0.00375423
0.0037145
0.003750163
0.003714351
0.003750181
0.003713706
0.003754203
0.003713698
0.003754635
0.00371452
0.00375061
0.00371436
0.003750649
0.003713738
0.003754597
0.003713726
0.003755118
0.003714518
0.003751099
0.00371437
0.003751152
0.003713778
0.003755058
0.003713759
0.003755669
0.003714521
0.003751614
0.003714383
0.003717994
0.003755549
0.003713818
0.003734603
0.003744111
0.003753399
0.003713538
0.003713566
0.0037525
0.003713509
0.003753511
0.003713613
0.003752522
0.003713486
0.00375287
0.003713617
0.003751808
0.003713464
0.003752142
0.003713595
0.00375108
0.003713445
0.003751387
0.00371357
0.003750343
0.003713427
0.003750638
0.003713546
0.003749616
0.003733709
0.003732632
0.003732059
0.003729822
0.003736673
0.003737323
0.003744321
0.003732438
0.003735916
0.003740959
0.003731858
0.003735937
0.003729624
0.003743677
0.003722667
0.003739203
0.003725151
0.003745687
0.003717764
0.003741713
0.003721526
0.003746481
0.003717473
0.003743094
0.003718197
0.003746948
0.003717962
0.003744192
0.003717444
0.003747335
0.00371824
0.003745168
0.003716811
0.003747805
0.003717832
0.003746046
0.003716237
0.003748163
0.003716984
0.003746764
0.003716358
0.003748432
0.003717299
0.003747148
0.003716466
0.003748769
0.003717413
0.003747554
0.003716466
0.003749099
0.0037176
0.003747962
0.003716458
0.003749455
0.003717746
0.003748351
0.003716427
0.003749792
0.003718047
0.003748779
0.003716593
0.003750047
0.003718475
0.003749097
0.003716804
0.003750319
0.003718905
0.003749351
0.003717042
0.003750599
0.003719381
0.003749616
0.0037173
0.003750899
0.003719918
0.003749888
0.003717587
0.003751215
0.003720488
0.003750176
0.003717894
0.003751552
0.003721048
0.003750483
0.003718216
0.003751908
0.003721678
0.003750812
0.003718542
0.003752287
0.003722421
0.003751159
0.003743603
0.003743078
0.003742505
0.003741896
0.003744113
0.003743373
0.003741786
0.003746375
0.003744179
0.003743124
0.003745443
0.003742617
0.003744283
0.003741417
0.003742087
0.003743656
0.003745963
0.00374544
0.003749541
0.003749749
0.003749752
0.003749454
0.0037517
0.003733896
0.00373643
0.003736225
0.00374637
0.003742387
0.003741333
0.003732334
0.003737876
0.003735105
0.003736427
0.003734965
0.003736313
0.003738632
0.003727962
0.003738482
0.003730365
0.003742605
0.003719492
0.003741152
0.003725786
0.003744963
0.00371688
0.003742785
0.003722288
0.003746287
0.003717112
0.003743868
0.003718948
0.003746798
0.003717192
0.003744877
0.003718068
0.003747136
0.003716678
0.00374574
0.003717703
0.003747516
0.003716055
0.003746614
0.003717007
0.003747967
0.003716357
0.003746997
0.003717058
0.003748157