/*--------------------------------*- C++ -*----------------------------------*\
  =========                 |
  \\      /  F ield         | OpenFOAM: The Open Source CFD Toolbox
   \\    /   O peration     | Website:  https://openfoam.org
    \\  /    A nd           | Version:  7
     \\/     M anipulation  |
\*---------------------------------------------------------------------------*/
FoamFile
{
    version     2.0;
    format      ascii;
    class       volScalarField;
    location    "0.01";
    object      p;
}
// * * * * * * * * * * * * * * * * * * * * * * * * * * * * * * * * * * * * * //

dimensions      [0 2 -2 0 0 0 0];

internalField   nonuniform List<scalar> 
89125
(
0.167798
0.2348865
0.2622952
0.248524
0.2525732
0.2507264
0.2532138
0.2533062
0.2296774
0.3178461
0.4422952
0.5562195
0.6203743
0.6810291
0.7025464
0.7057273
0.7137331
0.4239718
0.01778208
0.0259362
-0.04920174
-0.04984325
-0.01531083
0.043958
0.03373766
0.04998138
0.04831757
0.5057368
0.2362263
0.2162749
0.2693359
0.3178597
0.3318559
0.390942
0.3764971
0.3990324
0.3983296
0.5978649
0.1973987
0.2059528
0.225458
0.2556119
0.2497741
0.2910301
0.2815128
0.3068331
0.3075315
0.6395438
0.2568902
0.2143811
0.2501413
0.2410088
0.2376314
0.2592412
0.2385958
0.276018
0.2660342
0.6761207
0.2808132
0.287771
0.4169918
0.400322
0.4184632
0.4731707
0.436244
0.5057072
0.457266
0.7214662
0.4127173
0.2262873
0.3889274
0.2627776
0.2347768
0.2635703
0.1023778
0.2946643
0.2270137
0.7547352
0.06820325
0.1837061
0.5215339
0.4891016
0.6412464
0.7708637
0.5537375
0.8829807
0.7983553
1.058185
1.67177
1.562739
1.434734
1.290805
1.172284
1.181656
0.5010226
1.130061
1.043566
0.4255372
-0.7939157
-1.254554
-1.394043
-1.641947
-1.800808
-1.784871
-1.361375
-1.453057
-1.656167
1.220209
1.441798
0.7024514
-0.2049678
1.083814
-0.3735276
0.2441952
-0.4585768
-0.3528365
0.004836444
0.00483642
0.004836374
0.004836316
0.004836267
0.004836215
0.004836163
0.004836126
0.004836033
0.004836325
0.004836302
0.004836293
0.004836255
0.004836231
0.004836193
0.00483616
0.004836071
0.004835976
0.00483641
0.004836453
0.004836405
0.004836311
0.004836247
0.004836174
0.00483611
0.004836009
0.004835897
0.004836152
0.004836241
0.004836189
0.004836123
0.004836106
0.004836058
0.00483601
0.004835928
0.004835865
0.004836165
0.004836297
0.004836227
0.004836165
0.004836121
0.004836059
0.004836
0.004835892
0.004835775
0.004836066
0.004836179
0.004836117
0.004836045
0.004836007
0.00483594
0.00483587
0.004835774
0.004835674
0.004835987
0.00483612
0.004836038
0.004835985
0.004835944
0.004835881
0.004835813
0.004835717
0.004835603
0.00483593
0.004836081
0.004835982
0.004835924
0.004835876
0.004835806
0.004835729
0.00483563
0.004835514
0.1348296
0.1048556
0.1261125
0.1249465
0.1225455
0.1211851
0.1208227
0.1225586
0.1219332
0.3383122
0.2195401
-0.05662757
0.01041884
-0.1088117
-0.1150502
-0.1397851
-0.1402346
-0.1361722
-0.1347311
0.3665329
0.01972003
0.2637723
0.1732933
0.250395
0.2539845
0.2612502
0.2836399
0.2854725
0.2940628
0.07816977
0.213464
0.1503895
0.1714092
0.1818097
0.2040808
0.2117443
0.2192063
0.2242909
0.2271518
0.2825807
0.2222534
0.2654126
0.2481302
0.2698109
0.2704594
0.2873744
0.2894993
0.3016159
0.3025791
0.2000002
0.2637163
0.2221147
0.2374127
0.224854
0.2187917
0.2255153
0.2289361
0.2418099
0.2401802
0.2636644
0.3021783
0.3155227
0.4411617
0.4406991
0.4668511
0.4963138
0.5062482
0.5403923
0.5260138
0.3183102
0.4166832
0.2850157
0.3420516
0.2250232
0.1717676
0.1598709
0.1820416
0.2160564
0.1945325
-0.06588339
-0.02344382
0.1008228
0.403774
0.4273337
0.5376385
0.5445856
0.6601988
0.655204
0.6231581
1.567765
1.624188
1.518799
0.9829611
0.8235406
0.6376039
0.5200474
0.5774355
0.6362828
0.5797616
-0.3209627
-0.7395396
-0.622099
-0.9250988
-1.197768
-1.497939
-1.554807
-1.363512
-1.096551
-1.341821
0.004836355
0.004836426
0.004836303
0.004836244
0.004836172
0.0048361
0.004836017
0.004835945
0.004835815
0.00483568
0.004836363
0.004836375
0.004836341
0.004836411
0.004836408
0.004836373
0.004836339
0.004836309
0.00483624
0.004836125
0.004836339
0.004836417
0.004836327
0.00483634
0.004836262
0.004836212
0.004836147
0.004836102
0.004835995
0.004835918
0.004836215
0.004836251
0.004836213
0.004836224
0.004836182
0.004836146
0.004836096
0.00483604
0.004835952
0.004835862
0.00483615
0.004836257
0.004836212
0.004836215
0.004836158
0.00483611
0.004836052
0.004835996
0.004835889
0.004835781
0.004836068
0.004836134
0.004836113
0.004836106
0.004836053
0.004836006
0.004835944
0.004835876
0.004835779
0.00483568
0.004835949
0.004836056
0.004836049
0.004836042
0.004835991
0.004835943
0.004835884
0.004835811
0.004835717
0.004835598
0.004835861
0.004835996
0.004836004
0.004835975
0.004835928
0.004835872
0.004835803
0.004835729
0.004835628
0.004835513
0.1400718
-0.05637833
-0.1003561
-0.09642414
-0.128812
-0.1271772
-0.1257058
-0.1239792
-0.1221038
0.4107728
0.2773593
0.1663574
0.3262806
0.2191567
0.2587587
0.2428742
0.241803
0.2507456
0.2536579
0.3504019
-0.007968307
0.1742921
0.06427169
0.09725017
0.1093605
0.1313224
0.1308965
0.1423762
0.1470422
0.01987738
0.2533995
0.1413437
0.2381226
0.1802714
0.2089647
0.2104475
0.2099754
0.2157425
0.217408
0.2341021
0.2181537
0.2107886
0.211476
0.1856188
0.1951138
0.2020434
0.1897431
0.1948348
0.1890368
0.1482233
0.2205243
0.1103313
0.1134108
0.06350693
0.07399388
0.07554267
0.05677275
0.06484041
0.05282156
0.2641756
0.2672715
0.4212543
0.5235162
0.5215597
0.577134
0.6059155
0.6001114
0.6237545
0.5961404
0.1170642
0.170721
-0.1794575
-0.3062543
-0.4849062
-0.5570477
-0.5770933
-0.6065458
-0.555475
-0.607931
-0.09064634
-0.08342621
1.13826
1.177063
1.491318
1.725488
1.950984
2.050293
2.179068
2.068106
1.386299
1.470747
-0.5344524
-0.5418233
-0.9307528
-1.16468
-1.454228
-2.126277
-2.297256
-2.651371
-0.4838461
-0.5334966
0.6950317
0.8047254
1.029989
1.327061
1.483002
1.532418
2.026046
2.609764
0.004836328
0.004836384
0.004836394
0.004836379
0.004836339
0.004836318
0.00483629
0.004836258
0.004836189
0.004836097
0.004836298
0.004836316
0.004836248
0.004836301
0.0048363
0.004836275
0.004836226
0.004836172
0.004836069
0.004835956
0.004836334
0.004836356
0.004836321
0.004836316
0.004836261
0.004836213
0.004836173
0.00483613
0.004836029
0.004835933
0.004836146
0.004836183
0.00483619
0.004836202
0.004836185
0.004836163
0.004836109
0.004836055
0.004835955
0.004835857
0.004836151
0.004836186
0.004836186
0.00483619
0.004836156
0.004836103
0.004836045
0.004835993
0.004835884
0.00483578
0.004836057
0.004836083
0.004836091
0.004836085
0.004836052
0.004836012
0.004835952
0.004835886
0.004835788
0.004835686
0.004835992
0.004836019
0.004836028
0.004836016
0.004835992
0.004835939
0.004835875
0.004835811
0.00483571
0.004835597
0.004835943
0.004835963
0.004835972
0.004835958
0.004835923
0.004835866
0.004835801
0.004835725
0.004835623
0.004835509
0.1390651
0.009529745
0.02588242
0.03919496
0.04726723
0.05348415
0.05378022
0.0566936
0.0554681
0.4202276
0.2232479
-0.007046423
0.1083251
-0.01339111
0.05036205
0.02889057
0.03886502
0.04324355
0.04739011
0.4611971
-0.09133071
0.197785
0.07961843
0.1586656
0.1067455
0.140193
0.1291244
0.1408909
0.1426681
0.006974588
0.2646093
0.1143221
0.1792161
0.1281896
0.1146194
0.118451
0.1168616
0.1276858
0.1321507
0.3245597
0.2600361
0.2489271
0.2257651
0.2067488
0.169185
0.1634948
0.1609491
0.1769904
0.1815226
0.2089716
0.2551401
0.09590202
0.1389535
0.04709241
0.01173749
-0.02998106
-0.03891599
-0.01932739
-0.01300385
0.4212496
0.4622535
0.5128948
0.7430128
0.675013
0.6317752
0.624203
0.6494205
0.6544471
0.6597795
0.3650995
0.3840388
-0.2923411
-0.3763331
-0.7079429
-0.8716767
-0.9185663
-0.8976815
-0.8521625
-0.8456405
0.4706358
0.5277109
1.040121
1.653661
1.939628
2.184706
2.31615
2.274672
2.286353
2.308349
1.336538
1.041643
-0.5466079
-0.8481049
-1.235534
-1.386641
-1.55625
-1.854437
-2.033818
-2.114911
-0.7932114
-0.7651183
0.463908
0.6802685
0.8048287
0.6892966
0.6445067
0.4904051
0.3356023
0.3804848
0.004836344
0.004836392
0.004836329
0.004836288
0.004836251
0.004836221
0.004836186
0.004836132
0.004836014
0.004835923
0.004836302
0.0048363
0.004836243
0.004836295
0.004836277
0.004836243
0.004836188
0.004836144
0.004836027
0.004835934
0.004836414
0.004836381
0.004836322
0.004836295
0.004836257
0.004836213
0.00483617
0.004836128
0.004836026
0.004835927
0.004836204
0.004836212
0.00483618
0.004836191
0.004836172
0.004836154
0.004836093
0.004836047
0.004835942
0.00483585
0.004836243
0.004836218
0.004836197
0.004836188
0.004836155
0.004836098
0.00483605
0.004835998
0.004835889
0.004835783
0.004836111
0.004836101
0.004836072
0.004836059
0.004836045
0.004836001
0.004835952
0.004835888
0.004835792
0.004835693
0.004836056
0.004836042
0.004836019
0.004836018
0.004835987
0.004835934
0.004835878
0.004835811
0.00483571
0.004835597
0.004836
0.004835987
0.004835964
0.004835951
0.004835921
0.004835861
0.0048358
0.004835721
0.004835628
0.004835508
0.1371157
-0.01002896
-0.02808499
0.004522578
-0.009306932
0.007227856
0.003202565
0.005501755
0.003633272
0.4310373
0.2443189
0.05793566
0.2120267
0.08413687
0.1557808
0.1220956
0.1355595
0.1370704
0.1437524
0.4706766
-0.1077862
0.1482893
0.08223155
0.1154384
0.09977095
0.1123033
0.1152435
0.126362
0.1313551
-0.00618647
0.2617992
0.0977009
0.1858585
0.1103752
0.1177919
0.1243097
0.1326074
0.1511022
0.1612283
0.3072042
0.2518583
0.2258845
0.2119143
0.1459447
0.1299964
0.1596453
0.1785332
0.2184198
0.2381406
0.1637457
0.2316186
0.05209162
0.07388859
-0.06929824
-0.08339345
-0.0369364
0.04868718
0.1395805
0.169159
0.411563
0.433167
0.5307416
0.7084179
0.5260131
0.6082251
0.718337
0.9501419
1.123622
1.137972
0.1901634
0.268209
-0.4577573
-0.6681141
-1.036086
-1.105285
-1.00799
-0.5677367
-0.3146715
-0.3565487
0.3600181
0.4711655
1.239732
1.929598
2.527254
2.957871
3.190585
3.820596
4.470639
4.270214
1.221802
0.8978683
-0.9270299
-1.359565
-1.940724
-2.616817
-3.248374
-3.843991
-5.01178
-6.515954
-0.9645106
-1.047867
0.6854333
1.384871
1.755181
2.519383
2.709191
2.150178
3.070021
5.087359
0.004836278
0.004836379
0.004836328
0.004836326
0.004836286
0.004836254
0.004836201
0.00483615
0.004836048
0.004835959
0.004836286
0.004836291
0.004836257
0.004836302
0.004836293
0.004836254
0.004836198
0.004836142
0.004836034
0.004835935
0.004836392
0.004836351
0.004836329
0.004836294
0.004836246
0.004836208
0.004836172
0.004836125
0.004836022
0.004835925
0.004836167
0.004836193
0.004836196
0.004836189
0.004836194
0.004836168
0.004836111
0.004836057
0.004835953
0.004835851
0.004836209
0.004836203
0.004836203
0.004836191
0.004836151
0.004836104
0.004836053
0.004835997
0.004835885
0.004835776
0.004836085
0.004836084
0.004836072
0.004836057
0.004836045
0.004836012
0.004835954
0.004835897
0.004835792
0.004835698
0.004836035
0.004836032
0.004836026
0.004836017
0.004835987
0.004835938
0.004835878
0.004835812
0.004835712
0.004835597
0.004835985
0.004835979
0.004835967
0.004835944
0.004835919
0.004835861
0.004835796
0.004835729
0.004835619
0.004835512
0.1390581
0.008812887
0.006959625
0.02274465
0.01903762
0.0252208
0.02324061
0.02500602
0.0241444
0.4218544
0.2323691
0.03096641
0.1559813
0.03840394
0.09343106
0.06376457
0.07682681
0.07625543
0.08855768
0.4135399
-0.08709671
0.1694454
0.07253744
0.1088161
0.08460884
0.1039365
0.1028356
0.1129569
0.1152585
-0.05781247
0.2648326
0.1084908
0.184602
0.1085807
0.1113331
0.1194316
0.1280143
0.144
0.154505
0.3169525
0.2526509
0.2237595
0.2134362
0.1411905
0.1245328
0.1561471
0.1821779
0.2230385
0.242752
0.1936608
0.2356983
0.05369601
0.08171752
-0.0709461
-0.0874409
-0.03219014
0.05835292
0.1490718
0.1808279
0.4153635
0.453841
0.5273891
0.7044877
0.5269788
0.6030979
0.7213554
0.9481692
1.11937
1.14485
0.2501421
0.3109396
-0.4575083
-0.6767655
-1.041317
-1.106436
-1.005671
-0.5670903
-0.3313754
-0.3571559
0.4698127
0.5645858
1.211817
1.915884
2.509031
2.95018
3.16028
3.801798
4.433082
4.193634
1.203592
0.8803919
-0.9587231
-1.392546
-1.908846
-2.678058
-3.259445
-3.851498
-5.138289
-6.565713
-1.080012
-1.450066
0.6806241
1.398507
1.689315
2.573448
2.676559
2.064244
3.19467
4.987389
0.004836289
0.004836362
0.00483635
0.00483631
0.004836291
0.004836259
0.004836211
0.004836158
0.004836057
0.00483596
0.004836266
0.004836293
0.004836247
0.004836298
0.004836283
0.004836247
0.004836187
0.004836136
0.004836021
0.004835925
0.004836349
0.004836337
0.004836314
0.00483628
0.004836236
0.004836206
0.004836157
0.004836119
0.004836006
0.004835918
0.004836151
0.004836177
0.004836184
0.004836187
0.004836184
0.004836167
0.004836098
0.004836053
0.004835942
0.004835844
0.004836179
0.004836186
0.004836189
0.004836178
0.004836145
0.004836101
0.00483604
0.004835996
0.004835871
0.004835772
0.004836064
0.004836071
0.00483606
0.004836052
0.004836045
0.004836006
0.004835955
0.004835884
0.00483579
0.004835689
0.004836013
0.004836022
0.004836021
0.004836002
0.004835987
0.004835935
0.004835876
0.004835811
0.004835701
0.004835592
0.004835961
0.004835967
0.004835955
0.004835943
0.004835912
0.004835859
0.004835797
0.00483572
0.004835624
0.004835505
0.136852
0.004771459
-0.01303417
0.006946822
-0.008685177
-9.106219e-05
-0.005179509
0.0003951643
-0.01052689
0.3886934
0.2481976
0.0961682
0.2033473
0.1142776
0.1607724
0.1393016
0.1495028
0.1485838
0.1718841
0.2900025
0.02071428
0.1645395
0.07619835
0.08856865
0.07912251
0.08256837
0.07930908
0.07778493
0.07789185
0.008791904
0.2266134
0.116111
0.1991432
0.1290664
0.1332759
0.1232746
0.1248302
0.1299341
0.1382919
0.2721401
0.2480382
0.2306975
0.2171464
0.1789714
0.1416864
0.1265596
0.1254752
0.1348335
0.1374622
0.1084147
0.2486349
0.08870893
0.1282778
0.03827157
-0.004906234
-0.06217717
-0.06505157
-0.05257236
-0.04944178
0.4318081
0.4519119
0.5425736
0.7139461
0.6649084
0.6201265
0.6030096
0.6336316
0.6223468
0.6143822
0.3185117
0.3462976
-0.3096594
-0.4081979
-0.7269142
-0.8841715
-0.9453914
-0.9088138
-0.875898
-0.8888397
0.3896389
0.4350887
0.9514379
1.609809
1.915386
2.180278
2.273304
2.260253
2.275877
2.28039
1.222028
0.9573607
-0.605041
-0.8941955
-1.276262
-1.365634
-1.613423
-1.893741
-1.980427
-2.179146
-0.9534096
-1.164796
0.4393509
0.6700024
0.8154413
0.7268418
0.7097178
0.481633
0.3906659
0.3839715
0.00483632
0.004836372
0.004836315
0.004836278
0.004836239
0.00483621
0.00483616
0.004836112
0.004836009
0.004835923
0.004836348
0.00483631
0.004836255
0.004836296
0.004836281
0.004836237
0.004836183
0.004836132
0.004836026
0.004835925
0.004836431
0.004836361
0.004836315
0.004836282
0.004836237
0.004836207
0.004836174
0.004836121
0.004836018
0.004835917
0.004836233
0.004836223
0.004836195
0.004836191
0.004836187
0.004836153
0.004836092
0.004836034
0.004835925
0.004835825
0.004836273
0.00483623
0.004836205
0.004836186
0.004836151
0.004836095
0.004836052
0.004835988
0.004835881
0.004835765
0.004836133
0.004836107
0.004836076
0.00483606
0.004836042
0.004836011
0.004835945
0.004835887
0.004835777
0.004835687
0.004836084
0.004836051
0.004836023
0.004836021
0.004835983
0.004835935
0.004835876
0.004835808
0.004835701
0.004835593
0.004836028
0.004835993
0.004835967
0.004835942
0.004835913
0.004835857
0.004835794
0.004835719
0.004835616
0.004835506
0.1264655
0.05086072
0.04942615
0.03589349
0.02785604
0.03933918
0.02792719
0.02663928
0.02368901
0.3763451
0.2152399
0.06374673
0.1687018
0.08152697
0.122642
0.106417
0.1152085
0.1130545
0.1331631
0.3122874
0.03404221
0.1699781
0.06923326
0.09301143
0.07368357
0.08085417
0.06895309
0.06315159
0.05871846
-0.07099755
0.2636469
0.1444402
0.2111561
0.1494071
0.1607993
0.1515192
0.1487407
0.1486353
0.1492964
0.2580612
0.2466602
0.2221655
0.2049016
0.1669721
0.1623673
0.1557957
0.1456931
0.1416763
0.1327631
0.1724061
0.2342334
0.120517
0.1096216
0.04676177
0.05416031
0.03583747
0.02495636
0.02076713
0.004060179
0.3567832
0.3704883
0.4389969
0.5178037
0.5080383
0.5691764
0.5731763
0.5884218
0.5892147
0.5550805
0.2927135
0.3860816
-0.2064851
-0.3219375
-0.5105535
-0.5752069
-0.6437354
-0.616143
-0.5993368
-0.6850403
0.254428
0.4087043
0.9151659
1.080451
1.400159
1.68576
1.829374
2.033113
2.126132
1.955158
1.397561
1.41345
-0.812377
-0.6519058
-1.033785
-1.232897
-1.775176
-2.253945
-2.443762
-3.021236
-0.6837415
-0.7330097
0.7224046
0.7592784
0.9724608
1.290729
1.286541
1.419362
2.337533
2.191585
0.004836371
0.004836361
0.004836388
0.004836366
0.004836332
0.004836326
0.004836281
0.004836232
0.004836157
0.004836052
0.004836244
0.004836314
0.004836229
0.004836288
0.004836282
0.004836247
0.0048362
0.004836135
0.004836034
0.00483594
0.004836242
0.004836302
0.00483629
0.004836306
0.004836256
0.004836222
0.004836168
0.004836114
0.004836015
0.004835897
0.00483611
0.004836175
0.004836186
0.004836199
0.004836188
0.004836166
0.004836104
0.004836048
0.004835934
0.00483583
0.004836104
0.004836167
0.004836177
0.004836182
0.004836151
0.004836103
0.004836047
0.004835987
0.00483587
0.004835755
0.004836026
0.004836068
0.004836071
0.004836081
0.004836054
0.004836013
0.004835953
0.004835884
0.004835777
0.00483568
0.004835959
0.004836004
0.004836029
0.00483601
0.004835994
0.004835939
0.004835881
0.004835809
0.004835704
0.004835591
0.004835908
0.004835951
0.004835956
0.004835955
0.004835918
0.004835863
0.004835797
0.004835722
0.004835619
0.004835507
0.06846614
0.03315991
0.06629399
0.06619177
0.1023154
0.06298283
0.09612329
0.0904049
0.1474371
0.4187961
0.1328115
0.159746
0.2241432
0.20698
0.2298064
0.2154456
0.2460951
0.2409441
0.3103719
0.3839959
0.09587769
0.08996484
0.1156612
0.08279037
0.09408118
0.07715667
0.06314286
0.0300925
0.02547917
0.4026869
0.2163561
0.2577502
0.2313862
0.217518
0.2098114
0.2053007
0.2063425
0.2016451
0.2207671
0.3671242
0.2565128
0.2568038
0.2370854
0.221559
0.2122297
0.2107175
0.207158
0.2070596
0.2056704
0.04345987
0.2673762
0.2035037
0.2348437
0.2058941
0.2037288
0.1975855
0.2009959
0.2026494
0.2043185
0.6588554
0.3784702
0.3960041
0.4261681
0.4500268
0.4682587
0.4896002
0.5155081
0.5181718
0.5260966
0.8897849
0.5564052
0.4137269
0.3074716
0.2637046
0.1976805
0.2203959
0.2645286
0.2373568
0.2956754
0.787749
0.1530926
0.4165377
0.3915859
0.5060583
0.5852715
0.7576317
0.8313221
0.6473025
0.8859056
0.812891
1.210841
1.375258
0.927031
0.8175138
0.6066523
0.7270166
0.8718491
0.4654865
0.8845542
-0.1468832
-0.4397826
-1.458522
-1.757957
-2.164227
-2.693678
-2.007859
-1.371886
-2.483253
-1.760123
0.004836319
0.004836397
0.004836253
0.004836227
0.004836136
0.004836091
0.004836003
0.004835935
0.004835837
0.004835724
0.004836339
0.004836405
0.004836389
0.004836427
0.00483642
0.004836378
0.004836349
0.004836293
0.004836214
0.004836103
0.004836322
0.004836364
0.004836294
0.004836313
0.004836221
0.004836205
0.004836121
0.004836069
0.004835933
0.004835848
0.004836245
0.004836264
0.004836238
0.004836233
0.004836202
0.004836143
0.004836111
0.004836024
0.004835946
0.004835825
0.004836195
0.004836244
0.004836202
0.004836211
0.004836152
0.004836114
0.004836044
0.004835985
0.00483586
0.004835749
0.004836078
0.004836125
0.004836113
0.004836096
0.004836051
0.004836006
0.004835948
0.004835867
0.00483577
0.004835667
0.004836018
0.004836057
0.00483605
0.004836039
0.00483599
0.004835946
0.004835882
0.004835812
0.004835704
0.004835592
0.004835962
0.004835986
0.004836005
0.004835964
0.004835915
0.004835868
0.004835797
0.004835721
0.004835618
0.004835506
0.02501906
0.04343786
0.04321647
0.1001167
0.1409461
0.0744838
0.1172368
0.07247406
0.1003445
0.1811633
0.09599007
0.07826138
0.07743615
0.1054909
0.1313554
0.0641629
0.1624789
0.07042882
0.1651312
0.3186222
0.1118462
0.1110961
0.080935
0.05736873
0.05706715
0.06067881
0.03767084
0.01673929
-0.01676248
0.3538731
0.2310081
0.2198743
0.2310903
0.247777
0.2387358
0.2220415
0.2299415
0.2291146
0.23885
0.5009287
0.2132987
0.238772
0.2190935
0.2211253
0.2107124
0.2033292
0.2051278
0.2085446
0.2050839
0.6236262
0.2695987
0.2368305
0.2364729
0.214068
0.2126863
0.1962088
0.1992866
0.213435
0.2024501
0.604717
0.3132349
0.3477076
0.3918839
0.3893347
0.4317717
0.4079039
0.4228092
0.4603564
0.4162457
0.4735177
0.4347509
0.3526208
0.322715
0.2468628
0.2615829
0.1868632
0.2085338
0.2753007
0.2277636
0.5426631
0.155421
0.3648551
0.4414696
0.4664356
0.6687869
0.5938233
0.7191068
0.800557
0.7418804
0.7824121
1.2631
1.505801
1.362427
1.231816
1.160639
0.9467788
1.00067
1.012608
1.015057
0.5039597
0.8515217
-1.20202
-1.583577
-1.696417
-1.604024
-1.216559
-0.4870594
-1.451054
-1.273364
2.940349
0.06168719
0.6475025
-0.002643927
1.704849
-0.09825856
-0.6068522
-0.1129265
0.18433
0.004836362
0.004836408
0.004836389
0.004836364
0.004836328
0.004836316
0.004836323
0.004836268
0.004836248
0.004836179
0.004836368
0.00483632
0.004836306
0.004836311
0.00483624
0.004836245
0.004836182
0.00483615
0.004836014
0.004835931
0.004836298
0.00483634
0.004836413
0.00483635
0.004836269
0.004836215
0.004836151
0.004836059
0.004835964
0.004835844
0.004836246
0.004836177
0.004836252
0.004836196
0.004836146
0.004836127
0.004836062
0.004836007
0.004835902
0.004835805
0.004836213
0.004836177
0.004836273
0.004836207
0.004836157
0.004836111
0.004836054
0.004835978
0.00483587
0.004835746
0.004836009
0.004836071
0.00483616
0.004836099
0.004836047
0.004836006
0.004835937
0.004835863
0.004835758
0.00483566
0.004836061
0.004835976
0.004836126
0.004836032
0.004835988
0.004835945
0.004835881
0.004835807
0.004835704
0.004835592
0.004835995
0.004835914
0.004836082
0.004835959
0.004835919
0.004835865
0.004835798
0.004835719
0.004835618
0.004835505
0.04354428
0.04822435
-0.1952245
-0.04671635
-0.1106822
0.004836401
-0.1571405
0.004836371
-0.5747588
0.004836407
0.004836457
0.3326985
-0.1210932
0.004836429
0.004836455
0.3152058
0.004836412
0.004836415
-0.4223024
0.05094027
0.004836422
0.00483648
0.3667548
0.004836375
0.004836363
0.4963235
-0.2542694
0.004836381
0.004836443
-0.8721327
0.004836329
0.00483629
-0.2131978
-0.06470868
0.00483632
0.004836381
-0.5669462
0.004836265
0.004836181
-0.2497706
-0.01385388
0.004836244
0.0048363
-0.5546042
0.00483619
0.0048361
-0.2006342
0.1120781
0.004836176
0.004836201
-0.08442273
0.004836153
0.004836012
-0.096445
-0.3587832
0.004836108
0.004836078
0.3106856
0.00483608
0.00483598
0.09147493
-0.2730226
0.00483606
0.004836
0.5465241
0.004836086
0.004835812
0.03321
0.4080511
0.004835991
0.004835921
0.004836357
0.004836395
0.004836381
0.004836388
0.004836415
0.004836389
0.004836271
0.004836339
0.004836373
0.004836381
0.004836386
0.004836372
0.004836241
0.004836557
0.00483631
0.004836362
0.004836385
0.004836323
0.004836045
0.004836592
0.004836226
0.004836219
0.00483632
0.004836199
0.004836015
0.004836505
0.004836198
0.004836168
0.004836237
0.004836121
0.004835958
0.004836331
0.004836109
0.004836062
0.004836158
0.004836093
0.00483581
0.004836102
0.004836031
0.00483597
0.00483613
0.004836115
0.004835802
0.004836053
0.004835965
0.004835892
0.004836098
0.004836078
0.03543339
-0.3893323
0.1146199
0.05250277
-0.3503164
0.062948
0.2111866
0.004836297
-0.1168268
0.004836322
0.05733417
-0.4052203
0.1394365
0.06071368
-0.4375324
0.1464383
0.2645302
0.004836309
-0.09858291
0.004836329
0.06182059
-0.4344156
0.1607824
0.0619487
-0.4345994
0.1590989
-0.2096639
0.004836303
0.03380357
0.00483636
0.004836312
0.06219659
-0.4370144
0.1636149
0.06212016
-0.4332959
0.1637826
-0.1150511
0.004836286
-0.04120874
0.004836361
0.004836319
0.06199428
-0.435247
0.1572983
0.06152715
-0.4287949
0.1540165
0.01968344
0.004836322
0.004836281
-0.3412238
0.004836375
0.004836301
0.05997347
-0.4400637
0.1423487
0.05871269
-0.4577834
0.1356333
-0.02163344
0.004836323
-0.3302134
0.004836335
0.004836288
0.05545032
-0.4529655
0.1018742
0.0567999
-0.4236572
0.1310441
-0.1211678
0.004836356
0.004836334
0.05643057
0.004836331
0.004836304
0.05497086
-0.3915535
0.05576843
0.0349794
-0.3685991
0.0900514
-0.05561895
0.004836371
0.004836336
0.5090099
0.004836354
0.004836287
0.03801906
-0.2571713
-0.02263026
0.04848791
0.05528651
0.0114817
0.07024783
0.04812311
0.1507449
0.03616022
0.1161693
0.09247171
0.1581831
0.1429109
0.0669263
0.1487987
0.07897076
0.1755679
0.1695249
0.1432936
0.1830796
-0.1516585
0.1456039
0.2230494
0.3142427
0.1012836
-0.139427
0.1940345
0.1668812
0.2970718
0.2535443
0.06320243
0.07055285
0.2001424
0.1220955
0.1565569
0.2507449
0.10016
-0.154469
0.1743548
0.1240116
0.2929062
0.2279703
0.06824622
0.08400784
0.06691314
0.1363505
0.1492907
0.1831623
0.07185644
-0.1446839
0.1257817
0.1813793
0.1580793
-0.01016168
-0.05691237
0.2010894
-0.01942242
0.306215
0.1384914
-0.04986812
0.3816726
-0.2000964
-0.2927015
0.3935342
-0.168405
-0.1342341
0.4711912
0.496938
-0.09661397
-0.1075838
0.3906735
-0.2746424
0.03609314
0.5852908
0.598233
0.09608924
-0.06914564
0.4938588
-0.01909026
0.04560952
0.6797757
-0.2291806
0.5522302
-0.1045034
0.0140225
0.7474065
0.7011085
0.08657057
-0.05733557
0.5385363
0.1080417
0.1594649
0.5732838
0.8305636
0.05777748
0.5097598
0.3591627
0.2712951
0.7364415
0.111716
0.5840888
0.5292696
0.7675013
0.7254813
0.761139
-0.264369
-0.1987619
-0.1253587
-0.6296581
-0.1197291
0.004836366
0.004836345
0.1275622
0.004836397
0.9899773
0.004836401
0.004836409
0.4088746
0.4869774
0.004836396
0.004836399
-0.1352364
0.00483639
0.004836412
-0.8008221
0.1371069
0.004836378
0.004836392
-0.2212293
0.004836356
0.004836395
-0.08767942
-0.5349539
0.004836321
0.004836313
0.1174923
0.004836268
0.004836368
1.025274
0.2753365
0.004836292
0.004836258
-0.1084176
0.004836225
0.004836318
-0.6342522
0.02987324
0.004836268
0.004836196
1.061983
0.004836181
0.004836241
-0.1468877
0.1819932
0.004836209
0.004836111
0.06464511
0.004836122
0.004836134
0.06180282
0.9600567
0.004836141
0.004836021
-0.1164169
0.00483605
0.004835992
-1.006013
-0.3993215
0.004836071
0.004835906
1.225351
0.004835987
0.004835911
0.9118657
0.5534305
0.004836003
0.004835812
0.004836364
0.00483639
0.004836375
0.004836346
0.004836343
0.004836358
0.00483636
0.00483637
0.00483623
0.004836331
0.004836334
0.004836364
0.004836354
0.004836243
0.004836386
0.004836241
0.004836348
0.004836287
0.004836188
0.004836324
0.00483618
0.004836225
0.00483625
0.004836134
0.004836228
0.004836081
0.00483615
0.004836152
0.004836029
0.004836186
0.004835973
0.004836155
0.004836142
0.004835902
0.004836152
0.004835908
0.004836128
0.004836107
0.004835837
0.004836097
0.01130142
0.07893123
0.2208197
0.0655652
0.38039
0.06760517
0.1663004
0.008350474
-0.1970499
0.1644803
-0.1545059
-0.09100482
0.1195021
0.1883319
-0.02492804
-0.171444
0.2394122
-0.1751418
-0.1768716
0.1984087
0.1946386
-0.2012436
-0.2215059
0.2386656
-0.1846907
-0.2369507
0.1945518
0.1978283
-0.2381613
-0.22831
0.2532869
-0.2275375
-0.2196785
0.1949417
0.1931278
-0.2307085
-0.2340262
0.2505939
-0.215985
-0.2202334
0.1940594
0.1958872
-0.2313119
-0.2273121
0.2546297
-0.2170338
-0.2104483
0.19577
0.1953185
-0.2239998
-0.2243924
0.2540869
-0.2105227
-0.2096073
0.1963165
0.1961276
-0.2214576
-0.2215866
0.2542852
-0.2093133
-0.207591
0.1969697
0.1966936
-0.2192416
-0.2196276
0.2627584
-0.137597
-0.07153383
0.2717287
0.2371831
0.08494322
-0.04815702
0.4079013
-0.1728412
-0.2401011
0.2822272
0.2954177
-0.2036806
-0.2589926
0.4530718
-0.09822356
-0.2101344
0.4574506
0.184563
-0.1886278
-0.119151
0.5403118
-0.05012999
-0.1502022
0.5693609
0.3065354
-0.1579541
-0.00531916
0.5669989
-0.02183222
-0.1352177
0.5967796
0.363834
-0.1342543
0.03395918
0.6075021
0.0231345
-0.08598064
0.6490324
0.4173712
-0.07638082
0.09252958
0.6489784
0.07126274
-0.03898354
0.7122134
0.4846082
-0.01864265
0.185532
0.5901832
0.2338173
0.1012976
0.694613
0.5618268
0.08898218
0.1940148
0.882575
0.4573985
0.8130319
0.8806059
0.7247222
0.7473603
0.811943
-0.3034652
-0.5195703
-0.09059539
-0.3487976
-0.1719051
-1.080756
-1.486138
-1.308507
-0.5967704
-1.064615
0.1038654
-0.1143997
-1.28483
-0.923303
-0.4797094
-1.225585
-1.348627
-0.5719293
-0.05235862
-1.577211
-1.976793
-1.61909
-1.519512
-1.658557
-1.148584
-0.3397076
-1.696582
-0.9697383
-1.747976
-1.784338
-1.826861
-0.4878846
-0.1766618
-1.775303
-1.633606
-1.416862
-1.956809
-1.948856
-0.5548143
-0.08065568
-1.485263
-1.610025
-1.048366
-1.915205
-1.710342
-0.4251875
0.05908819
-1.505694
-1.29087
-1.58868
-1.679932
-1.722967
-0.0004827705
-0.3432971
-1.645479
-0.9902832
-2.133335
-1.832976
-1.707905
-0.485673
-0.960253
-0.09311032
0.03275172
-0.3095923
-0.6018596
-0.3729848
-0.2481671
-0.0811768
-0.1611607
-0.8004814
-0.5041084
-0.817514
-0.7675491
-0.4849926
-0.9192139
-0.6517983
-0.6277622
-0.7965794
-1.157013
-0.5769541
-0.5812292
0.004836419
0.004836374
0.004836373
0.004836443
0.004836437
0.004836443
0.004836437
0.004836429
0.004836426
0.004836487
0.004836442
0.004836404
0.004836439
0.004836428
0.004836408
0.004836392
0.004836502
0.004836384
0.004836367
0.004836369
0.004836391
0.004836365
0.00483634
0.00483648
0.004836325
0.0048363
0.00483631
0.004836335
0.004836328
0.004836272
0.004836456
0.004836238
0.004836214
0.004836259
0.004836244
0.004836291
0.004836188
0.004836439
0.004836146
0.004836126
0.004836236
0.004836144
0.004836259
0.004836092
0.004836424
0.004836034
0.004836041
0.004836193
0.004836061
0.004836223
0.004836013
0.00483641
0.00483593
0.004835948
0.004836168
0.004835964
0.004836226
0.004835919
0.004836437
0.004835798
0.004835838
0.00483613
0.004835922
0.004836177
0.004835809
0.004836425
0.004835697
0.004836371
0.004836378
0.004836352
0.004836434
0.004836388
0.004836395
0.004836347
0.004836417
0.004836372
0.004836397
0.004836311
0.004836384
0.0048363
0.004836339
0.004836296
0.004836336
0.004836187
0.004836272
0.004836216
0.004836201
0.004836082
0.004836099
0.004836099
0.004836076
0.004836054
0.004836023
0.004836011
0.004836063
0.09874284
0.1039509
-0.3440095
0.0218034
-0.4724064
-0.7089171
-0.130682
-0.1963808
-0.1777658
0.004836344
0.004836376
0.004836417
0.004836345
0.004836376
0.004836365
0.004836409
0.08132058
0.09301065
-0.6387273
0.04677266
-0.6464495
-0.9381978
-0.1150245
-0.3736874
-0.2705638
0.004836359
0.004836365
0.004836386
0.004836348
0.00483639
0.004836345
0.004836367
0.06636736
0.05679244
-1.075582
-0.4364499
-0.9121016
-1.255412
-0.07141749
-0.3515338
-0.4524553
0.004836363
0.00483636
0.004836379
0.004836369
0.004836401
0.004836368
0.004836398
0.05798128
0.05930892
-1.311213
-0.4869144
-1.042255
-1.447643
-0.5416097
-0.4038591
-0.4083008
0.004836341