/*--------------------------------*- C++ -*----------------------------------*\
  =========                 |
  \\      /  F ield         | OpenFOAM: The Open Source CFD Toolbox
   \\    /   O peration     | Website:  https://openfoam.org
    \\  /    A nd           | Version:  7
     \\/     M anipulation  |
\*---------------------------------------------------------------------------*/
FoamFile
{
    version     2.0;
    format      ascii;
    class       surfaceScalarField;
    location    "0.01";
    object      phi;
}
// * * * * * * * * * * * * * * * * * * * * * * * * * * * * * * * * * * * * * //

dimensions      [0 3 -1 0 0 0 0];

internalField   nonuniform List<scalar> 
266918
(
0.0004990611
-0.0002424372
-0.008354876
-0.001951144
-0.0001997131
0.000458194
4.225995e-05
2.727444e-05
1.155312e-06
-0.007957086
-0.001821115
-1.671619e-06
5.328775e-06
-0.007888944
-0.001807745
-2.513613e-06
1.54931e-06
-0.007858129
-0.001802297
-1.463706e-06
1.434388e-06
-0.007852274
-0.001800929
-1.385383e-06
1.093766e-06
-0.007846465
-0.001799791
-1.689208e-06
1.473015e-06
-0.007840574
-0.001798336
-1.790162e-06
1.66402e-06
-0.007833963
-0.001796922
-0.0002699208
-0.03596609
-0.001604748
0.008838603
0.009034276
0.01065249
0.01030759
0.001046718
-0.001988154
0.0009639652
-0.001014731
-0.000284776
-0.03650201
-0.00100214
0.008476592
0.008346706
0.01037831
0.0103174
-6.994409e-05
-0.03628257
-0.0009845945
0.008296172
0.008281435
0.01024838
0.01022634
-2.899467e-06
-0.03613743
-0.0009552181
0.008293728
0.008281709
0.01022814
0.01022203
1.900993e-05
-0.0360576
-0.000944718
0.008276823
0.008277793
0.0102159
0.01020989
2.61652e-05
-0.03597553
-0.0009932503
0.008272635
0.008271836
0.01020884
0.01020832
3.666357e-05
-0.03596579
-0.0009877098
0.008267784
0.008269963
0.01020342
0.01020183
4.077672e-05
-0.03593582
-0.0009833469
0.008261323
0.008262853
0.01019585
0.01019502
-0.03591212
-0.0009838869
0.008254682
0.008256498
0.01018858
0.010188
4.901915e-05
0.00193313
-9.159703e-05
-0.001734241
-0.000107291
0.0004237356
-0.03557037
-3.501965e-06
0.001639875
-0.002009384
0.0003129142
-0.0007593593
0.0002075703
-0.03534356
-0.0009422794
9.545306e-05
-0.03529625
-0.0008742034
4.778256e-05
-0.03516236
-0.0009273992
3.704349e-05
-0.03512244
-0.0009244271
5.279707e-05
-0.03504311
-0.0009481756
5.532473e-05
-0.03504973
-0.0009185853
6.812559e-05
-0.03501664
-0.0009319887
-0.03500117
-0.0009223497
7.952255e-05
0.001983708
-0.0001085958
-0.001762768
-0.0001123439
-2.567646e-05
-0.03556051
5.406815e-05
0.001865602
-0.001886761
0.0004652045
-0.0004823031
3.408521e-05
-0.0353975
-5.825497e-06
3.656485e-05
-0.0352761
-2.263405e-05
4.773755e-05
-0.03511124
-6.230533e-05
4.766099e-05
-0.03506916
-5.320882e-05
7.126496e-05
-0.03500142
-6.530686e-05
7.122421e-05
-0.03498459
-6.510455e-05
8.964789e-05
-0.03496724
-6.782168e-05
-0.03494859
-6.863806e-05
0.000105696
0.002004846
-0.0001121646
-0.0017789
-0.0001137815
5.721168e-05
-0.03556375
2.555371e-05
0.001878277
-0.001904621
0.0004328221
-0.0004860035
6.000819e-05
-0.03533493
-6.536754e-05
5.439686e-05
-0.03523978
-3.0713e-05
6.522993e-05
-0.0350722
-4.987652e-05
5.796505e-05
-0.0350135
-4.839896e-05
7.553053e-05
-0.03497294
-4.604889e-05
7.697752e-05
-0.03493262
-5.34245e-05
0.0001005131
-0.03494427
-4.651275e-05
-0.03492628
-4.599501e-05
0.0001241954
0.002011927
-0.0001130465
-0.00178472
-0.0001141614
6.716355e-05
-0.03564458
3.566708e-05
0.001894433
-0.001899706
0.0004544723
-0.0004712133
5.795837e-05
-0.03539355
6.781661e-05
6.947456e-05
-0.0353401
8.879921e-05
7.33758e-05
-0.03517954
0.0001034385
7.241457e-05
-0.03512028
0.0001077425
9.095461e-05
-0.03510619
0.0001147084
8.092555e-05
-0.03501876
9.616879e-05
0.0001150378
-0.03509073
0.0001123422
-0.03506369
0.0001093282
0.0001431131
0.002016933
-0.0001137316
-0.001788292
-0.0001149103
2.391385e-05
-0.03567358
5.140445e-06
0.001903008
-0.001898116
0.0004625255
-0.0004674822
8.619548e-06
-0.0354218
4.353849e-05
5.447126e-05
-0.03545145
6.549018e-05
6.169005e-05
-0.03526745
8.069133e-05
6.39821e-05
-0.03519845
7.58717e-05
0.0001008149
-0.03523168
8.8661e-05
7.005088e-05
-0.03503875
5.075325e-05
0.0001289997
-0.03523336
8.367634e-05
-0.03516244
7.113986e-05
0.0001566052
0.002019844
-0.000114743
-0.001789757
-0.0001153454
0.0001561027
-0.03594167
2.600789e-05
0.001914598
-0.001881863
0.0004904749
-0.0004372571
7.267974e-05
-0.03582648
0.0004880886
0.0001263801
-0.03615339
0.0006482299
0.0001072476
-0.03603485
0.000786521
0.0001306693
-0.03605378
0.0008319063
0.000182512
-0.03614086
0.0008573313
1.739114e-05
-0.03563676
0.0007631172
8.970547e-05
-0.03616647
0.000860792
-0.03609239
0.0008595082
0.0001601493
0.002015879
-0.0001156368
-0.001785517
-0.0001147281
-0.0002640324
-0.03635688
0.0004372156
0.001942735
-0.001778032
0.00050967
-0.000432369
-0.0002542116
-0.03669451
0.0008581978
-9.173229e-05
-0.03722355
0.0009076699
-6.130899e-05
-0.03702425
0.0009589671
6.860581e-05
-0.03705396
0.0008702549
0.0001979018
-0.03715081
0.000880642
-0.0001050408
-0.03583822
0.0005044023
2.595416e-05
-0.03718465
0.0008871872
-0.03712878
0.0008945076
0.0001678399
0.001992029
-0.0001274636
-0.001740548
-0.0001240186
-0.0001843666
-0.008846279
0.0006607737
0.002493859
-0.0007438192
0.001184784
-7.497323e-05
-0.009350823
-0.01063933
-0.01085671
0.0002954299
-0.009492968
0.003952971
-0.009491717
-0.01102836
-0.01111425
7.173342e-05
-0.009666413
0.004998979
-0.009782078
-0.01132867
-0.01122167
2.125971e-06
-0.00992163
0.005477026
-0.009941535
-0.01125477
-0.01131371
7.602297e-05
-0.01001971
0.005638908
-0.01004536
-0.01132837
-0.0113733
0.0002172662
-0.01007802
0.005824031
-0.01003463
-0.01140968
-0.01159374
-0.0001600189
-0.009977132
0.004701444
-0.007743005
-0.01155983
-0.0108824
8.683136e-05
-0.009961361
0.005766187
-0.01007045
-0.01152268
-0.01164318
-0.01009759
0.00581689
-0.009903441
-0.0114495
-0.01161816
0.0002098784
0.001807223
-0.0001000581
-0.001640457
-6.670861e-05
0.000184401
0.000197629
0.001481149
-0.003043942
-0.00233071
-0.003023729
-0.002311051
-0.0001374613
1.879218e-05
0.001452186
-0.00308419
-0.002345306
-0.003046732
-0.002350242
2.682121e-05
-1.147961e-05
0.001331997
-0.003148867
-0.002416579
-0.002957401
-0.002490898
-8.873479e-06
3.629999e-06
0.001427312
-0.00317101
-0.002402798
-0.003257796
-0.00251206
-1.097585e-06
-2.037744e-05
0.001419283
-0.003205372
-0.00247975
-0.003204421
-0.002527922
5.989564e-05
-0.0001110781
0.001409463
-0.003288776
-0.00252178
-0.003193307
-0.002432384
0.0004036244
-0.0003120946
0.001312141
-0.002354879
-0.003075016
-0.003106025
-0.002844861
0.0004777334
0.001299349
-0.0004279818
-0.003064304
-0.002788838
-0.003069754
-0.002387553
-0.0001689017
0.0001212781
0.001425872
-0.003134482
-0.002437355
-0.003362362
-0.002541625
5.835188e-05
0.0003884856
-4.133237e-06
0.0001394323
3.914661e-05
0.0003604344
4.854742e-05
0.0001326484
0.0002033145
0.00163905
0.0003010419
0.0001437183
0.0003240964
-4.535137e-05
0.0004822316
-2.694144e-05
0.0001716866
5.118363e-05
0.0003757666
1.2239e-05
0.0001426981
1.180957e-05
0.0004605075
-6.993134e-05
0.0001795251
-3.729626e-05
0.0004218773
5.282261e-05
5.039007e-05
-0.0006193283
0.002682602
0.0001598362
0.0001035013
0.0003627392
-9.280833e-05
0.0004898983
2.044882e-05
0.0001629579
-5.430651e-11
4.92142e-10
-6.714917e-10
4.460056e-10
-5.513367e-11
-8.355075e-11
-3.855771e-11
-3.616089e-11
3.500629e-11
9.188321e-10
-1.165477e-09
3.971034e-10
-3.978769e-11
-8.556606e-11
-2.566241e-11
-3.573982e-11
3.850517e-11
1.451644e-09
-1.673227e-09
3.59717e-10
-5.653293e-12
-1.129385e-10
-4.681448e-11
-1.28204e-11
1.129726e-10
1.906397e-09
-2.194643e-09
3.663313e-10
-5.98159e-11
-1.328822e-10
1.070285e-12
-1.332386e-12
1.556373e-10
2.476331e-09
-2.77026e-09
3.461961e-10
-6.324463e-11
-1.573095e-10
1.66906e-11
-5.578818e-12
2.084199e-10
3.080457e-09
-3.382123e-09
3.450859e-10
-1.048915e-10
-1.725853e-10
3.285431e-11
-8.167829e-12
2.391432e-10
3.730295e-09
-4.059461e-09
3.761367e-10
-1.180109e-10
-2.10131e-10
4.493594e-11
-4.123168e-12
2.979295e-10
4.45637e-09
-4.787704e-09
3.789868e-10
-1.787181e-10
-2.427006e-10
6.287935e-11
1.012066e-11
3.849655e-10
5.249417e-09
-5.665715e-09
3.861563e-10
-2.204609e-10
-2.460699e-10
1.078894e-10
4.877958e-13
-3.678443e-09
4.604078e-09
1.814676e-10
3.311729e-10
7.884355e-10
3.748092e-10
5.782952e-10
-6.340622e-10
-8.661722e-10
-8.213013e-10
-8.609565e-10
-5.454446e-09
4.942114e-09
1.964858e-10
-6.114441e-10
-9.807147e-10
-8.632633e-10
-9.087004e-10
-7.357501e-09
5.00874e-09
2.384184e-10
-5.430596e-10
-1.029447e-09
-8.607272e-10
-9.121734e-10
-9.393709e-09
5.327483e-09
2.524617e-10
-4.938839e-10
-1.165151e-09
-9.169707e-10
-9.693964e-10
-1.15934e-08
5.708036e-09
3.209563e-10
-4.426815e-10
-1.310992e-09
-1.030924e-09
-1.045704e-09
-1.401437e-08
6.202779e-09
3.364094e-10
-4.28906e-10
-1.497788e-09
-1.032784e-09
-1.159623e-09
-1.666908e-08
6.846948e-09
3.15258e-10
-4.280362e-10
-1.70357e-09
-1.096534e-09
-1.281433e-09
-1.962249e-08
7.608328e-09
2.932735e-10
-4.499117e-10
-1.949049e-09
-1.142177e-09
-1.411625e-09
8.49361e-09
3.29146e-10
-4.852912e-10
-2.319587e-09
-1.203771e-09
-1.608832e-09
-2.283287e-08
-3.613911e-09
6.39811e-09
-5.324076e-11
7.476718e-11
7.551002e-10
3.704832e-10
6.709932e-10
-5.257171e-09
6.674583e-09
-9.002896e-11
-7.17283e-09
6.838807e-09
8.443585e-11
-9.17321e-09
7.215367e-09
1.11797e-10
-1.130888e-08
7.695926e-09
1.47138e-10
-1.357945e-08
8.300149e-09
1.723093e-10
-1.607631e-08
9.070939e-09
2.709672e-10
-1.878766e-08
9.993349e-09
3.229105e-10
1.109299e-08
3.77943e-10
-2.176879e-08
-3.497161e-09
8.181659e-09
-1.382668e-11
-2.837702e-10
9.3879e-10
3.33876e-10
7.366702e-10
-4.908391e-09
8.227166e-09
-1.429883e-10
-6.64546e-09
8.529598e-09
4.517573e-11
-8.442259e-09
8.97129e-09
3.967778e-11
-1.041664e-08
9.603845e-09
6.547506e-11
-1.256053e-08
1.038258e-08
6.050272e-11
-1.487535e-08
1.133068e-08
5.337228e-11
-1.742558e-08
1.247652e-08
6.436644e-11
1.38457e-08
5.4743e-11
-2.02365e-08
-3.120727e-09
9.92354e-09
-7.037391e-11
-3.90367e-10
8.947495e-10
2.200943e-10
7.224309e-10
-4.502121e-09
9.772011e-09
-1.647429e-10
-6.150286e-09
1.018911e-08
-1.31637e-11
-7.84087e-09
1.067855e-08
-1.797156e-11
-9.653576e-09
1.140088e-08
1.45091e-11
-1.158848e-08
1.229338e-08
2.296065e-11
-1.369012e-08
1.338629e-08
4.435586e-11
-1.597881e-08
1.47073e-08
5.564827e-11
1.62632e-08
7.58402e-11
-1.847475e-08
-2.706669e-09
1.138907e-08
-1.274847e-10
-4.538617e-10
9.984896e-10
1.032925e-10
7.187534e-10
-4.016136e-09
1.119806e-08
-1.184176e-10
-5.512702e-09
1.167952e-08
5.122514e-12
-7.029102e-09
1.22031e-08
-9.765553e-12
-8.658934e-09
1.301993e-08
9.304122e-12
-1.039505e-08
1.401863e-08
9.177093e-12
-1.226647e-08
1.524389e-08
1.200757e-11
-1.429528e-08
1.672187e-08
1.179189e-11
1.84702e-08
1.086594e-11
-1.651568e-08
-2.40076e-09
1.255931e-08
-1.83744e-10
-3.060367e-10
1.06011e-09
-2.621297e-11
6.845583e-10
-3.602632e-09
1.24929e-08
-9.409598e-11
-4.874016e-09
1.297416e-08
-2.549088e-11
-6.219623e-09
1.356696e-08
-1.959588e-11
-7.639705e-09
1.444391e-08
-5.380757e-12
-9.153149e-09
1.553094e-08
-3.706608e-13
-1.077879e-08
1.686376e-08
3.916334e-12
-1.252305e-08
1.845621e-08
7.878151e-12
2.033336e-08
1.119217e-11
-1.43996e-08
-2.079349e-09
-2.020718e-10
-3.435889e-10
1.094248e-09
-1.031708e-10
6.621678e-10
1.352981e-08
-3.103942e-09
-7.112871e-11
1.35871e-08
-4.16298e-09
-3.225994e-11
1.406527e-08
-5.306541e-09
-1.239005e-11
1.472175e-08
-6.511227e-09
-7.563472e-12
1.565525e-08
-7.795095e-09
-2.070552e-12
1.681597e-08
-9.159828e-09
4.422708e-13
1.822716e-08
-1.061329e-08
-4.612434e-13
1.990888e-08
1.926679e-12
-1.216628e-08
2.188318e-08
0.0004997932
0.0004121578
-0.001532523
-0.01016619
-0.0003486558
-5.40186e-05
0.0007144754
-4.311179e-05
-3.296492e-05
0.0004825098
-2.37922e-05
-0.0006892266
-0.04107239
-0.00120493
0.001825653
0.002502858
-0.0006667037
-0.0008130328
0.001895
-0.0005163378
0.002511638
-0.0004146754
-2.272078e-05
-0.04126836
-0.001539071
0.002642241
0.002682802
-0.0007972576
-0.0008036907
1.776413e-06
-0.0412443
-0.001737748
0.00270914
0.002713673
-0.0007842795
-0.000764787
1.757988e-05
-0.04114117
-0.001740117
0.00270205
0.002702684
-0.0007722269
-0.0007725333
1.041089e-05
-0.04109078
-0.001749371
0.00270129
0.002701868
-0.0007711907
-0.0007682861
1.162452e-05
-0.04105752
-0.001754107
0.002699175
0.002699518
-0.0007687426
-0.0007693458
1.38796e-05
-0.04103085
-0.001752547
0.002697245
0.00269779
-0.0007687232
-0.0007686767
-0.04099797
-0.001750427
0.002694968
0.002695575
-0.0007682625
-0.0007684495
1.669059e-05
0.001963814
0.0003034358
-0.0006559619
-0.008521675
-5.790175e-05
0.0024649
0.002059229
0.002457697
0.0002568836
-0.0002427766
-2.764485e-05
0.0001249067
-0.04093626
-0.0008251162
0.0101062
0.01039003
0.009959551
0.01007721
0.0005343541
-0.0007922168
0.0005364756
-0.0007798933
0.0002419422
-0.04144168
-0.0007498872
0.00012022
-0.04130163
-0.0008296081
7.869076e-05
-0.0411712
-0.0009867813
5.621729e-05
-0.04111043
-0.0009529912
3.854007e-05
-0.0410682
-0.0009981543
4.129943e-05
-0.04104339
-0.001004602
4.702193e-05
-0.04102041
-0.0009995033
-0.04099166
-0.0009980206
5.48383e-05
-0.0004309921
-0.03613428
-0.0002417191
0.001292418
0.0007376214
-0.001885769
-0.0004846415
0.008128406
0.01044377
0.008325586
0.0102496
0.0001251881
-0.04149887
2.932682e-06
-5.008562e-05
-0.04152236
-0.0006863252
5.865932e-05
-0.04148351
-0.0008010641
2.978646e-05
-0.04120733
-0.0008624043
5.322357e-05
-0.04113631
-0.0009219778
4.803279e-05
-0.04107902
-0.0009321625
6.481641e-05
-0.04103689
-0.0009418705
7.288731e-05
-0.04101648
-0.0009439976
-0.04098915
-0.0009402387
8.826024e-05
-0.0004890605
-0.03546615
0.0003253484
0.001729614
0.0003346966
-0.00195357
-0.0006151613
-0.0001558906
-0.04173891
-3.905972e-05
-2.023373e-05
-0.04148128
-0.0001825692
1.215988e-05
-0.04127288
-0.0002656535
3.520732e-05
-0.04098535
-0.0003073316
5.647363e-05
-0.04087338
-0.0003374103
6.616811e-05
-0.04080493
-0.0003490931
8.128833e-05
-0.04076268
-0.0003544317
9.836178e-05
-0.04074503
-0.0003563522
-0.04072384
-0.0003553727
0.0001197846
8.900081e-05
-0.03557941
-1.931664e-05
0.001894728
0.0004986214
-0.001885268
-0.0004645066
3.091435e-05
-0.04167837
2.309857e-05
5.532396e-05
-0.04152676
-4.430278e-05
5.722001e-05
-0.04125795
-4.754872e-05
6.242416e-05
-0.04097336
-6.708015e-05
6.844076e-05
-0.0408577
-7.009989e-05
8.167343e-05
-0.04078452
-7.970493e-05
9.321352e-05
-0.04074212
-8.553324e-05
0.0001177276
-0.04073211
-8.395313e-05
-0.04071351
-8.397332e-05
0.0001453759
-3.579193e-05
-0.03556059
0.0001082198
0.001877941
0.0004497979
-0.001907998
-0.0005109946
5.729502e-05
-0.04183239
9.658839e-05
8.064724e-05
-0.04165723
0.0001749293
8.715088e-05
-0.04138427
0.0002086041
8.807791e-05
-0.04110472
0.0002338654
8.538651e-05
-0.04099402
0.000246745
9.512409e-05
-0.04093023
0.0002506827
0.0001047377
-0.04089545
0.0002398798
0.0001363527
-0.04089401
0.0002426242
-0.04087644
0.0002379777
0.0001706265
-4.318009e-05
-0.03553306
3.891421e-05
0.001895206
0.0004744937
-0.001899853
-0.0004931264
2.287164e-05
-0.04197878
8.547594e-05
1.732136e-05
-0.04176303
0.0001548794
6.758615e-05
-0.04155408
0.0001850303
7.579846e-05
-0.04127141
0.0002391673
8.093535e-05
-0.04117511
0.0002518268
0.000100227
-0.04111159
0.0002507231
0.0001021915
-0.04107062
0.0002239564
0.0001537661
-0.04110404
0.0002421289
-0.04107909
0.0002353893
0.0001921615
-9.187987e-05
-0.03567965
0.0002635865
0.001892696
0.0004772654
-0.001897335
-0.0004977598
0.0003056743
-0.04278737
0.0004370389
0.0002954987
-0.04253143
0.001266658
0.0002656508
-0.04261833
0.001742321
0.000204921
-0.04236142
0.001937256
0.0001439298
-0.04234701
0.002064784
0.0001179471
-0.04231434
0.002086058
0.0001010116
-0.04229343
0.00200286
0.0001666702
-0.04237538
0.002066477
-0.04231534
0.002044888
0.0002175458
0.0001195443
-0.03578011
-1.738494e-05
0.001910353
0.0004721643
-0.001829051
-0.0005551818
-7.481965e-05
-0.04257594
0.0004201313
-0.0002874861
-0.04185855
0.0003979695
-0.000170524
-0.04187879
5.114872e-05
-7.697636e-05
-0.04155191
5.589261e-05
3.765693e-06
-0.04149139
-6.611634e-05
3.076068e-05
-0.04138392
-7.677799e-05
5.430355e-05
-0.04162684
-0.0001857315
0.0001613892
-0.04159298
-2.29616e-06
-0.0414725
-3.353829e-05
0.0002466014
-0.0003347391
-0.008298179
0.0001176189
0.002374163
0.001001538
-0.0008572453
-0.0003530637
-0.01037868
-0.008624532
-0.010427
0.0003215265
-0.01096305
0.000935545
-0.0105425
-0.0102576
-0.01174382
0.0008541038
-0.01080997
0.006638394
-0.01107153
-0.01135429
-0.01184077
0.0003958256
-0.01139677
0.01058062
-0.01130075
-0.0120026
-0.01230205
0.000215578
-0.01150556
0.01175232
-0.01154007
-0.0121532
-0.01244813
9.581928e-05
-0.01163717
0.01195601
-0.01166739
-0.0121172
-0.01226697
2.974636e-05
-0.01173342
0.01232846
-0.01172968
-0.01211882
-0.01224035
4.368191e-05
-0.01198509
0.01194289
-0.01207356
-0.01242077
-0.01240278
0.0001723392
-0.01195702
0.01253712
-0.0117836
-0.01255532
-0.01219662
-0.01178286
0.01255396
-0.01190583
-0.01222987
-0.01237243
0.0002537699
-7.216081e-05
0.0007685223
0.0002469953
-0.002666008
-0.001950895
-0.002642292
-0.001982346
-0.001437213
-0.0009815944
0.0002014495
-0.009115205
0.0003695132
-0.001657009
0.0005018797
-0.0002717409
-0.009375579
-7.516339e-06
-0.001555953
0.0002200472
-0.0001638213
-0.009807823
-8.922084e-05
-0.001617501
2.216901e-05
-2.531856e-05
-0.009950785
6.588056e-05
-0.001642691
-3.911085e-05
-2.144982e-05
-0.01006142
0.0001275145
-0.00167372
1.653403e-05
-7.80059e-05
-0.0101481
0.0001498929
-0.001632053
-2.983956e-05
2.403203e-05
-0.01024822
-9.899943e-05
-0.001565698
5.78644e-05
2.935832e-05
-0.01022695
-0.000251591
-0.001613655
-6.062119e-05
7.492677e-06
-0.01013681
2.074172e-05
1.009247e-11
-4.002281e-11
7.284072e-11
-6.118162e-12
-1.547555e-11
-2.167448e-11
-5.192576e-09
2.711219e-09
3.976764e-10
9.781727e-11
-1.717024e-11
1.697611e-10
7.6522e-11
5.639302e-10
6.067437e-10
5.525297e-10
6.738418e-10
-1.210115e-10
-1.311633e-10
-4.441004e-11
-3.470259e-10
-7.4937e-09
2.50061e-09
3.068297e-10
5.236332e-11
-9.637632e-11
1.390706e-10
2.146719e-12
3.555761e-11
-1.771234e-10
-3.044828e-10
-1.595709e-10
-9.924333e-09
2.909501e-09
2.288164e-10
-2.092323e-12
-1.529679e-10
1.348402e-10
-5.877722e-11
-3.380715e-11
-3.11269e-10
-1.185611e-10
-1.673988e-10
-1.268928e-08
3.174332e-09
3.59722e-10
5.760534e-11
-1.946853e-10
1.59663e-10
-8.921928e-11
2.405724e-11
-3.495987e-10
-1.699366e-10
-2.091511e-10
-1.566837e-08
3.549475e-09
5.052631e-10
7.755263e-11
-2.417329e-10
1.497693e-10
-1.264527e-10
-1.872539e-12
-4.445659e-10
-2.584892e-10
-2.316321e-10
-1.899701e-08
3.885135e-09
5.902655e-10
1.12321e-10
-2.87024e-10
2.504253e-10
-1.676109e-10
1.749039e-11
-5.242053e-10
-2.776358e-10
-2.718116e-10
-2.262479e-08
4.221993e-09
7.788442e-10
1.368391e-10
-3.489024e-10
3.082884e-10
-2.175176e-10
4.783405e-11
-6.204166e-10
-2.923537e-10
-3.904814e-10
-2.654737e-08
4.548878e-09
6.753444e-10
1.65857e-10
-4.070433e-10
4.33699e-10
-2.391927e-10
1.611339e-10
-6.959028e-10
-3.06036e-10
-4.213283e-10
5.009202e-09
7.763587e-10
1.928077e-10
-5.258363e-10
5.654938e-10
-2.523404e-10
1.729822e-10
-7.717075e-10
-3.135017e-10
-5.5434e-10
-3.085464e-08
-4.781228e-11
-6.879517e-10
-1.342226e-10
8.787994e-10
5.732361e-11
-5.176778e-11
1.046893e-11
-2.637575e-11
-4.433765e-09
5.091025e-09
2.325239e-10
4.076326e-10
5.063656e-10
4.237803e-10
6.629116e-10
-7.058411e-09
5.22769e-09
9.331628e-11
-9.470904e-09
5.373274e-09
1.862735e-10
-1.201409e-08
5.774717e-09
1.944984e-10
-1.484453e-08
6.384854e-09
3.155943e-10
-1.796779e-08
6.966538e-09
3.773261e-10
-2.133031e-08
7.558507e-09
3.3948e-10
-2.496273e-08
8.218921e-09
2.522961e-10
9.131143e-09
2.825544e-10
-2.904115e-08
-7.486318e-11
-1.102949e-09
-1.232128e-10
1.291144e-09
9.182351e-11
-6.686966e-11
2.119636e-11
-3.765809e-11
-4.144865e-09
7.216876e-09
-7.194957e-12
4.134864e-10
5.441694e-10
4.157879e-10
5.977858e-10
-6.414433e-09
7.491355e-09
-8.553284e-11
-8.787023e-09
7.758633e-09
7.081376e-11
-1.127472e-08
8.184649e-09
1.886431e-10
-1.381622e-08
8.801432e-09
2.710559e-10
-1.657264e-08
9.540474e-09
3.536821e-10
-1.95753e-08
1.041212e-08
4.177611e-10
-2.292395e-08
1.144027e-08
4.469881e-10
1.271932e-08
5.049467e-10
-2.66431e-08
-1.135071e-10
-1.561496e-09
-2.436663e-11
1.703716e-09
1.425069e-10
-1.131275e-10
2.105735e-11
-5.622152e-11
-3.81986e-09
9.182654e-09
5.367742e-11
3.189458e-10
5.370858e-10
3.105676e-10
6.171364e-10
-5.839264e-09
9.519222e-09
-1.527098e-10
-7.938539e-09
9.867953e-09
3.323587e-11
-1.015745e-08
1.038337e-08
5.830314e-11
-1.252365e-08
1.111419e-08
1.174957e-10
-1.506438e-08
1.201904e-08
1.211398e-10
-1.783428e-08
1.309177e-08
1.413785e-10
-2.088256e-08
1.439839e-08
1.512839e-10
1.596829e-08
1.685628e-10
-2.424877e-08
-1.400058e-10
-1.955892e-09
1.609359e-11
2.078168e-09
1.667068e-10
-1.160314e-10
2.679385e-11
-7.762828e-11
-3.487833e-09
1.098474e-08
9.122373e-12
2.381385e-10
5.112737e-10
2.545417e-10
5.995115e-10
-5.335764e-09
1.136772e-08
-1.675149e-10
-7.25522e-09
1.180895e-08
-3.613857e-11
-9.275698e-09
1.237967e-08
4.202573e-12
-1.140486e-08
1.320615e-08
4.998349e-11
-1.368855e-08
1.424042e-08
8.312726e-11
-1.616971e-08
1.550716e-08
1.07915e-10
-1.888229e-08
1.70384e-08
1.250996e-10
1.885315e-08
1.486414e-10
-2.184317e-08
-1.633994e-10
-2.331872e-09
3.783061e-11
2.452619e-09
1.704891e-10
-1.204573e-10
2.838433e-11
-7.528943e-11
-3.165413e-09
1.260614e-08
-3.643169e-11
1.516003e-10
4.997207e-10
2.235026e-10
5.75576e-10
-4.796777e-09
1.304524e-08
-1.658638e-10
-6.47835e-09
1.354434e-08
-5.120834e-11
-8.269708e-09
1.418906e-08
-2.962897e-11
-1.017518e-08
1.511327e-08
5.390138e-12
-1.221449e-08
1.626725e-08
1.953715e-11
-1.441091e-08
1.768192e-08
3.082881e-11
-1.679667e-08
1.939491e-08
3.808375e-11
2.142121e-08
4.488343e-11
-1.940195e-08
-1.809937e-10
-2.693426e-09
3.697158e-11
2.759006e-09
1.95976e-10
-9.767529e-11
3.332268e-11
-5.459746e-11
-2.759255e-09
1.401964e-08
-1.052709e-10
8.660541e-11
4.898902e-10
1.434755e-10
5.451033e-10
-4.217027e-09
1.453004e-08
-1.232784e-10
-5.701088e-09
1.506713e-08
-6.527416e-11
-7.275442e-09
1.577587e-08
-3.415421e-11
-8.931476e-09
1.677724e-08
-1.502918e-11
-1.069958e-08
1.80327e-08
3.222578e-13
-1.260216e-08
1.957434e-08
1.230805e-11
-1.463884e-08
2.142081e-08
1.631715e-11
2.360386e-08
2.454552e-11
-1.683714e-08
-1.963847e-10
-2.982673e-09
3.960176e-11
3.029599e-09
2.081083e-10
-9.352456e-11
4.262985e-11
-4.855071e-11
-2.36495e-09
-1.299235e-10
3.377365e-11
4.679873e-10
8.030083e-11
5.162748e-10
1.521282e-08
-3.602362e-09
-1.082755e-10
1.580406e-08
-4.857881e-09
-6.528223e-11
1.635298e-08
-6.189436e-09
-3.316464e-11
1.712718e-08
-7.594571e-09
-1.99127e-11
1.819351e-08
-9.090468e-09
-3.574928e-12
1.952942e-08
-1.067944e-08
-2.026359e-12
2.11646e-08
-1.237824e-08
7.555755e-12
2.311082e-08
7.492011e-12
-1.418754e-08
2.540669e-08
0.0007439982
7.664137e-05
-0.001239523
-0.01003693
-3.410489e-05
-3.622553e-05
0.000741273
-3.467947e-05
-0.0008227811
-0.04025953
-0.0002337446
0.002562874
-0.0005269569
0.002573893
-0.0004819773
1.693611e-06
-0.04045008
-0.0003028303
1.747462e-05
-0.04072353
-0.0003488413
2.208892e-05
-0.04062443
-0.0004090868
9.217332e-06
-0.0406271
-0.000405839
1.235578e-05
-0.04058929
-0.0004174515
1.287916e-05
-0.04056347
-0.0004164802
-0.04052878
-0.0004159741
1.509151e-05
0.00209589
3.789073e-05
-0.0007292381
-0.008471786
-1.789051e-05
0.002498914
0.002096464
0.002489753
-0.0007091796
-0.04023542
-0.0004073226
0.01002932
0.01020502
0.009995637
0.01009019
0.0006724964
-0.0005847918
0.0006784141
-0.0005594842
-0.0001026652
-0.04107219
-0.0005437389
8.27774e-06
-0.04075868
-0.0006319482
5.504686e-05
-0.04099409
-0.0007629859
3.792321e-05
-0.04081272
-0.0007475781
3.28581e-05
-0.04083929
-0.0007809014
3.6416e-05
-0.04080587
-0.0007915749
4.489337e-05
-0.04077954
-0.0007919016
-0.04074869
-0.0007870262
5.381249e-05
-0.001066603
-0.03636016
-0.0002127954
0.008413905
0.01034673
0.008398647
0.01023855
-0.0002735348
-0.04099769
-2.786675e-05
-0.0003289631
-0.04125576
-0.0004473317
-5.694325e-05
-0.04122679
-0.0006049706
-4.24487e-05
-0.04115045
-0.0007205421
2.582729e-05
-0.04103976
-0.0007632103
4.036389e-05
-0.04100455
-0.0007814328
5.675206e-05
-0.04096719
-0.0007969408
7.128631e-05
-0.04094142
-0.0007966566
-0.04091297
-0.000791985
8.731028e-05
-0.0008082378
-0.03528256
5.599163e-05
-0.0003507479
-0.04144924
-4.500582e-05
-0.0001881694
-0.04141359
-0.0001873183
-4.440156e-05
-0.04133962
-0.0002966048
-2.869503e-06
-0.0411085
-0.0003908134
3.609832e-05
-0.0409891
-0.0004270376
5.561833e-05
-0.04092076
-0.0004524064
7.436141e-05
-0.04087875
-0.0004616108
9.528925e-05
-0.04085413
-0.000464573
-0.04082795
-0.0004637626
0.0001186503
2.618903e-05
-0.03533289
4.818818e-06
-2.663098e-05
-0.0413725
-8.145586e-07
-7.480228e-06
-0.04142314
-5.391149e-05
3.959619e-05
-0.0413538
-8.045074e-05
3.957362e-05
-0.04105589
-0.0001196723
5.724794e-05
-0.04095065
-0.0001262272
7.647831e-05
-0.04087728
-0.0001424153
9.059584e-05
-0.04082191
-0.000156495
0.0001183612
-0.04080251
-0.0001633373
-0.04077243
-0.0001679367
0.0001468076
6.769399e-06
-0.03527058
3.914245e-05
0.0001046191
-0.04142794
5.417596e-05
0.0001036701
-0.04136521
0.0001179482
0.0001089595
-0.04127747
0.000126983
8.64849e-05
-0.04095395
0.0001544016
8.950669e-05
-0.04087831
0.0001713785
0.000104848
-0.04081824
0.0001762966
0.0001119293
-0.04074899
0.0001598778
0.0001437533
-0.04074572
0.000154007
-0.0407079
0.000143376
0.0001738235
1.887103e-05
-0.03522306
-2.7475e-05
5.610464e-05
-0.04138432
4.616468e-06
6.87636e-05
-0.04134987
0.0001268771
9.943471e-05
-0.04126472
0.0001416156
7.282554e-05
-0.04088665
0.000198474
6.939846e-05
-0.04084974
0.0002266855
9.71514e-05
-0.04078549
0.0001902229
0.0001042553
-0.0406645
0.0001323582
0.000156505
-0.04069175
0.0001359094
-0.04063124
0.0001218444
0.0001933931
0.0003465287
-0.03538631
8.031382e-05
0.00104228
-0.04191306
0.0002700329
0.0008232465
-0.04080726
0.0009430885
0.0004982258
-0.04057734
0.001379956
0.0002660815
-0.04029296
0.00157571
0.0001628409
-0.04035828
0.001676564
0.0001409221
-0.04034942
0.001671903
0.0001129584
-0.04023561
0.001601939
0.0001767424
-0.04029788
0.001608828
-0.04018523
0.001569225
0.0002064042
0.0006588559
-0.03585279
-0.0002097554
7.408483e-05
-0.04084402
-6.414489e-05
-0.000241477
-0.04033862
0.0002448895
-0.000455221
-0.0401524
-0.0001600455
-0.0004148843
-0.03997372
-0.0003036884
-0.0002276801
-0.04015328
-0.0004583281
1.658005e-05
-0.04018848
-0.0004819707
8.483171e-05
-0.0399767
-0.0005128829
0.0002338964
-0.04009062
-0.0003586073
-0.03995325
-0.000305759
0.0002741387
0.002948994
-0.008886948
0.0004644784
-0.01069867
-0.008895802
-0.01066722
0.006068885
-0.01050256
0.001088396
-0.01121707
-0.01065985
-0.01173728
0.004052086
-0.03598691
0.004303479
0.001931527
-0.03683435
0.009383124
0.001131081
-0.03890747
0.01148651
0.0007367884
-0.0403711
0.01256813
0.0006503542
-0.04130679
0.0135332
0.0002387591
-0.04139938
0.01377716
0.0002547246
-0.04206003
0.01449056
-0.04191486
0.01457934
0.0001909515
-0.0001466882
0.0007540263
7.942047e-05
-0.002772845
-0.002014848
-0.002735994
-0.002050023
-0.001242803
0.0003953751
-0.0001861771
-0.009279498
-0.0001894594
-0.003960972
-0.003660644
0.00245206
0.002230798
-0.0003961788
-0.0009408735
0.002575132
-0.0004184199
0.002346009
-0.0008631631
-0.002673093
-0.007543271
0.003151275
0.003144215
-0.0002237239
-0.0002484159
-0.001759146
-0.009389783
0.003242962
0.003305513
-9.594551e-05
-0.0001029872
-0.001043562
-0.01066465
0.003303201
0.003324362
-0.0001142513
-0.0001090575
-0.0004922454
-0.01142387
0.003334672
0.003339018
-0.0001541861
-0.0001202447
-0.0004549606
-0.01204103
0.00341123
0.003947341
-5.977029e-05
0.000144816
-0.0002295247
-0.01235756
0.003599587
0.003290514
0.0001558836
-0.0001327832
-0.01240761
0.003400356
0.00348795
-4.844862e-05
0.0001225497
0.0001426094
7.08371e-12
-2.906599e-11
-1.314614e-11
6.955883e-11
-1.563906e-11
-1.903639e-11
-4.308045e-09
1.927559e-09
1.571992e-11
5.417364e-10
5.902445e-10
5.475569e-10
5.658234e-10
1.083772e-10
1.205362e-10
1.045525e-10
1.819958e-10
-6.026439e-09
1.861488e-09
1.628752e-10
-7.989935e-09
2.207973e-09
-1.592645e-11
-1.004554e-08
2.394056e-09
2.044416e-11
-1.239381e-08
2.697891e-09
1.55576e-10
-1.500817e-08
2.968422e-09
2.357375e-10
-1.778331e-08
3.254393e-09
2.990186e-10
-2.080476e-08
3.55285e-09
1.424741e-10
3.973493e-09
2.112829e-10
-2.421436e-08
-1.701322e-09
4.491848e-09
9.709396e-11
-6.641212e-10
-8.434078e-10
-7.067143e-10
-6.190821e-10
-9.662053e-11
-1.457517e-10
1.6019e-10
2.638925e-11
-4.518028e-09
4.858751e-09
1.173393e-10
-7.225678e-09
4.586385e-09
7.558367e-11
-9.731398e-09
4.847232e-09
5.213498e-11
-1.240635e-08
5.200926e-09
6.225166e-11
-1.518799e-08
5.697637e-09
9.690539e-11
-1.821486e-08
6.245226e-09
1.266947e-10
-2.15574e-08
6.814638e-09
1.20424e-10
-2.532706e-08
7.49374e-09
7.883545e-11
8.345076e-09
1.093546e-10
-2.952767e-08
-1.675393e-09
6.161217e-09
-1.400495e-10
-1.987755e-10
-6.470975e-11
2.69258e-10
1.388176e-10
-3.877478e-09
7.092172e-09
-3.972204e-11
-6.537238e-09
7.222097e-09
-6.244534e-11
-9.107392e-09
7.450801e-09
3.629342e-11
-1.174074e-08
7.890942e-09
1.306205e-10
-1.449009e-08
8.513697e-09
2.02989e-10
-1.743327e-08
9.260349e-09
2.80183e-10
-2.06335e-08
1.013356e-08
2.96699e-10
-2.416597e-08
1.115095e-08
3.192733e-10
1.24179e-08
3.566566e-10
-2.809404e-08
-1.658481e-09
7.778187e-09
-7.169338e-11
-2.965483e-10
-1.094991e-10
3.336547e-10
1.833117e-10
-3.650866e-09
9.120999e-09
1.552192e-11
-5.915244e-09
9.382283e-09
-5.044468e-11
-8.212613e-09
9.748945e-09
3.041614e-11
-1.060598e-08
1.02516e-08
8.868269e-11
-1.311599e-08
1.098503e-08
1.540138e-10
-1.579331e-08
1.188559e-08
1.706759e-10
-1.869473e-08
1.297347e-08
2.000831e-10
-2.188931e-08
1.428442e-08
2.086539e-10
1.586628e-08
2.406467e-10
-2.541345e-08
-1.529224e-09
9.248514e-09
-2.856407e-11
-3.573377e-10
-1.357824e-10
3.829386e-10
1.946972e-10
-3.318187e-09
1.094169e-08
-2.449155e-11
-5.332024e-09
1.131081e-08
-8.423104e-11
-7.391381e-09
1.179856e-08
-2.914967e-11
-9.538087e-09
1.238622e-08
1.375875e-11
-1.178467e-08
1.321313e-08
6.540625e-11
-1.417618e-08