/*--------------------------------*- C++ -*----------------------------------*\
  =========                 |
  \\      /  F ield         | OpenFOAM: The Open Source CFD Toolbox
   \\    /   O peration     | Website:  https://openfoam.org
    \\  /    A nd           | Version:  7
     \\/     M anipulation  |
\*---------------------------------------------------------------------------*/
FoamFile
{
    version     2.0;
    format      ascii;
    class       volScalarField;
    location    "0.01";
    object      epsilon;
}
// * * * * * * * * * * * * * * * * * * * * * * * * * * * * * * * * * * * * * //

dimensions      [0 2 -3 0 0 0 0];

internalField   nonuniform List<scalar> 
109978
(
0.001929702
0.001983086
0.001987247
0.001987302
0.001986868
0.001985956
0.001983106
0.002087342
0.002097478
0.002098386
0.002097983
0.002096772
0.001987184
0.002097288
0.002109095
0.002110456
0.002110138
0.002108778
0.00198715
0.002098102
0.002110388
0.002111976
0.002111742
0.002110359
0.001986781
0.002097913
0.002110372
0.002112087
0.002111914
0.002110548
0.001986412
0.002097589
0.002110118
0.002111904
0.002111776
0.002110436
0.001986083
0.002097259
0.002109831
0.002111657
0.002111561
0.002110242
0.001985792
0.002096958
0.002109548
0.002111396
0.00211133
0.002110026
0.001985534
0.002096684
0.002109287
0.002111149
0.002111099
0.002109811
0.001985303
0.002096435
0.002109046
0.002110919
0.00211088
0.002109606
0.001985095
0.002096212
0.002108826
0.002110705
0.002110678
0.002109414
0.001984905
0.002096008
0.002108624
0.002110509
0.002110487
0.002109231
0.001984732
0.002095821
0.002108438
0.002110327
0.002110311
0.00210906
0.001984574
0.002095648
0.002108267
0.002110159
0.002110146
0.002108899
0.001984428
0.002095489
0.002108109
0.002110003
0.002109991
0.002108749
0.001984294
0.00209534
0.002107961
0.002109856
0.002109847
0.002108607
0.001984168
0.002095201
0.002107822
0.002109717
0.002109708
0.002108473
0.001984051
0.002095069
0.002107688
0.002109583
0.002109574
0.00210834
0.001983939
0.002094938
0.00210755
0.002109442
0.002109432
0.002108199
0.001983824
0.002094787
0.00210738
0.002109262
0.002109247
0.002108015
0.001983667
0.002094527
0.002107061
0.002108916
0.002108892
0.002107666
0.00198331
0.002093879
0.002106255
0.002108044
0.00210802
0.002106839
0.01226389
0.002092594
0.002104722
0.002106412
0.00210643
0.002105427
0.01232297
0.0122743
0.01227177
0.01227072
0.01227011
0.01226966
0.01227611
0.01226792
0.01226779
0.01226647
0.01226586
0.01226557
0.01226879
0.01226682
0.01226609
0.01226568
0.01226545
0.01226529
0.0122671
0.01226603
0.01226582
0.01226561
0.01226546
0.01226534
0.01226655
0.01226561
0.01226547
0.01226534
0.01226525
0.01226517
0.01226623
0.01226533
0.01226527
0.0122652
0.01226515
0.0122651
0.01226601
0.01226515
0.01226512
0.01226508
0.01226505
0.01226502
0.01226585
0.01226503
0.01226501
0.01226499
0.01226497
0.01226495
0.01226573
0.01226493
0.01226493
0.01226491
0.0122649
0.01226489
0.01226562
0.01226486
0.01226486
0.01226485
0.01226485
0.01226484
0.01226554
0.0122648
0.0122648
0.0122648
0.0122648
0.0122648
0.01226546
0.01226476
0.01226476
0.01226476
0.01226476
0.01226476
0.0122654
0.01226472
0.01226472
0.01226472
0.01226472
0.01226472
0.01226534
0.01226468
0.01226469
0.01226469
0.01226469
0.01226469
0.01226529
0.01226465
0.01226466
0.01226466
0.01226466
0.01226466
0.01226524
0.01226463
0.01226463
0.01226463
0.01226464
0.01226464
0.0122652
0.01226461
0.01226461
0.01226461
0.01226462
0.01226462
0.01226516
0.01226459
0.01226459
0.01226459
0.01226459
0.0122646
0.01226512
0.01226457
0.01226457
0.01226457
0.01226458
0.01226458
0.01226509
0.01226455
0.01226455
0.01226455
0.01226456
0.01226456
0.01226506
0.01226453
0.01226454
0.01226454
0.01226454
0.01226455
0.01226503
0.01226452
0.01226452
0.01226452
0.01226453
0.01226453
0.012265
0.01226451
0.01226451
0.01226451
0.01226451
0.01226452
0.01226496
0.0122645
0.0122645
0.0122645
0.0122645
0.01226451
0.01233597
0.0122752
0.01227056
0.0122696
0.01226921
0.01226895
0.01227466
0.01226732
0.01226776
0.01226633
0.01226574
0.01226547
0.0122678
0.01226677
0.01226604
0.01226565
0.0122654
0.01226524
0.01226626
0.01226597
0.01226581
0.01226561
0.01226546
0.01226534
0.01226596
0.01226557
0.01226545
0.01226534
0.01226523
0.01226515
0.01226576
0.0122653
0.01226526
0.0122652
0.01226514
0.01226508
0.01226563
0.01226513
0.01226511
0.01226507
0.01226504
0.012265
0.01226553
0.012265
0.012265
0.01226498
0.01226496
0.01226493
0.01226545
0.01226491
0.01226491
0.0122649
0.01226489
0.01226488
0.01226537
0.01226484
0.01226485
0.01226484
0.01226484
0.01226483
0.01226531
0.01226479
0.01226479
0.01226479
0.01226479
0.01226478
0.01226526
0.01226474
0.01226475
0.01226475
0.01226475
0.01226474
0.01226521
0.0122647
0.01226471
0.01226471
0.01226471
0.01226471
0.01226516
0.01226467
0.01226468
0.01226468
0.01226468
0.01226468
0.01226512
0.01226464
0.01226465
0.01226465
0.01226465
0.01226465
0.01226509
0.01226462
0.01226462
0.01226462
0.01226463
0.01226463
0.01226505
0.01226459
0.0122646
0.0122646
0.0122646
0.01226461
0.01226502
0.01226457
0.01226458
0.01226458
0.01226458
0.01226459
0.01226499
0.01226456
0.01226456
0.01226456
0.01226457
0.01226457
0.01226496
0.01226454
0.01226454
0.01226455
0.01226455
0.01226455
0.01226494
0.01226452
0.01226453
0.01226453
0.01226453
0.01226453
0.01226491
0.01226451
0.01226451
0.01226452
0.01226452
0.01226452
0.01226489
0.0122645
0.0122645
0.0122645
0.01226451
0.01226451
0.01226487
0.01226449
0.01226449
0.01226449
0.01226449
0.0122645
0.0123374
0.01227308
0.01226983
0.01226936
0.01226916
0.01226896
0.01227446
0.01226719
0.01226785
0.01226632
0.01226574
0.01226547
0.01226765
0.01226676
0.01226603
0.01226563
0.01226538
0.01226523
0.01226629
0.01226597
0.01226579
0.0122656
0.01226545
0.01226533
0.01226595
0.01226557
0.01226545
0.01226533
0.01226523
0.01226515
0.01226576
0.0122653
0.01226525
0.01226519
0.01226513
0.01226508
0.01226562
0.01226512
0.0122651
0.01226507
0.01226504
0.012265
0.01226552
0.012265
0.01226499
0.01226498
0.01226496
0.01226493
0.01226544
0.01226491
0.01226491
0.0122649
0.01226489
0.01226488
0.01226537
0.01226484
0.01226484
0.01226484
0.01226484
0.01226483
0.0122653
0.01226478
0.01226479
0.01226479
0.01226479
0.01226478
0.01226525
0.01226474
0.01226475
0.01226475
0.01226475
0.01226474
0.0122652
0.0122647
0.01226471
0.01226471
0.01226471
0.01226471
0.01226516
0.01226467
0.01226467
0.01226468
0.01226468
0.01226468
0.01226512
0.01226464
0.01226465
0.01226465
0.01226465
0.01226465
0.01226508
0.01226461
0.01226462
0.01226462
0.01226463
0.01226463
0.01226504
0.01226459
0.0122646
0.0122646
0.0122646
0.01226461
0.01226501
0.01226457
0.01226458
0.01226458
0.01226458
0.01226459
0.01226498
0.01226455
0.01226456
0.01226456
0.01226457
0.01226457
0.01226496
0.01226454
0.01226454
0.01226455
0.01226455
0.01226455
0.01226493
0.01226452
0.01226453
0.01226453
0.01226453
0.01226454
0.01226491
0.01226451
0.01226451
0.01226452
0.01226452
0.01226452
0.01226489
0.01226449
0.0122645
0.0122645
0.01226451
0.01226451
0.01226487
0.01226448
0.01226449
0.01226449
0.01226449
0.0122645
0.01233716
0.01227275
0.01226957
0.01226899
0.01226874
0.01226855
0.01227441
0.01226717
0.01226781
0.0122663
0.01226573
0.01226547
0.01226765
0.01226675
0.01226604
0.01226564
0.01226538
0.01226522
0.01226629
0.01226596
0.01226578
0.0122656
0.01226546
0.01226533
0.01226595
0.01226556
0.01226544
0.01226533
0.01226523
0.01226515
0.01226575
0.01226529
0.01226525
0.01226519
0.01226513
0.01226508
0.01226562
0.01226512
0.0122651
0.01226507
0.01226504
0.012265
0.01226552
0.012265
0.01226499
0.01226498
0.01226496
0.01226493
0.01226543
0.01226491
0.01226491
0.0122649
0.01226489
0.01226488
0.01226536
0.01226484
0.01226484
0.01226484
0.01226483
0.01226483
0.0122653
0.01226478
0.01226479
0.01226479
0.01226479
0.01226478
0.01226525
0.01226474
0.01226474
0.01226475
0.01226475
0.01226474
0.0122652
0.0122647
0.0122647
0.01226471
0.01226471
0.01226471
0.01226515
0.01226466
0.01226467
0.01226468
0.01226468
0.01226468
0.01226511
0.01226464
0.01226464
0.01226465
0.01226465
0.01226465
0.01226508
0.01226461
0.01226462
0.01226462
0.01226463
0.01226463
0.01226504
0.01226459
0.0122646
0.0122646
0.0122646
0.01226461
0.01226501
0.01226457
0.01226457
0.01226458
0.01226458
0.01226459
0.01226498
0.01226455
0.01226456
0.01226456
0.01226456
0.01226457
0.01226496
0.01226453
0.01226454
0.01226454
0.01226455
0.01226455
0.01226493
0.01226452
0.01226452
0.01226453
0.01226453
0.01226454
0.01226491
0.01226451
0.01226451
0.01226451
0.01226452
0.01226452
0.01226489
0.01226449
0.0122645
0.0122645
0.0122645
0.01226451
0.01226487
0.01226448
0.01226449
0.01226449
0.01226449
0.0122645
0.01233713
0.01227277
0.01226959
0.01226902
0.01226877
0.01226857
0.01227441
0.01226717
0.01226781
0.0122663
0.01226573
0.01226547
0.01226764
0.01226675
0.01226604
0.01226564
0.01226538
0.01226522
0.01226629
0.01226596
0.01226578
0.0122656
0.01226546
0.01226533
0.01226595
0.01226556
0.01226544
0.01226533
0.01226523
0.01226515
0.01226575
0.01226529
0.01226525
0.01226519
0.01226513
0.01226508
0.01226562
0.01226512
0.0122651
0.01226507
0.01226504
0.012265
0.01226552
0.012265
0.01226499
0.01226498
0.01226496
0.01226493
0.01226543
0.01226491
0.01226491
0.0122649
0.01226489
0.01226488
0.01226536
0.01226484
0.01226484
0.01226484
0.01226483
0.01226483
0.0122653
0.01226478
0.01226479
0.01226479
0.01226479
0.01226478
0.01226525
0.01226474
0.01226474
0.01226475
0.01226475
0.01226474
0.0122652
0.0122647
0.0122647
0.01226471
0.01226471
0.01226471
0.01226515
0.01226466
0.01226467
0.01226468
0.01226468
0.01226468
0.01226511
0.01226464
0.01226464
0.01226465
0.01226465
0.01226465
0.01226508
0.01226461
0.01226462
0.01226462
0.01226463
0.01226463
0.01226504
0.01226459
0.0122646
0.0122646
0.0122646
0.01226461
0.01226501
0.01226457
0.01226457
0.01226458
0.01226458
0.01226459
0.01226498
0.01226455
0.01226456
0.01226456
0.01226456
0.01226457
0.01226496
0.01226453
0.01226454
0.01226454
0.01226455
0.01226455
0.01226493
0.01226452
0.01226452
0.01226453
0.01226453
0.01226454
0.01226491
0.01226451
0.01226451
0.01226451
0.01226452
0.01226452
0.01226489
0.01226449
0.0122645
0.0122645
0.0122645
0.01226451
0.01226487
0.01226448
0.01226449
0.01226449
0.01226449
0.0122645
0.01233751
0.01227289
0.0122696
0.012269
0.01226876
0.01226858
0.01227444
0.01226719
0.01226785
0.01226632
0.01226574
0.01226547
0.01226761
0.01226676
0.01226603
0.01226563
0.01226538
0.01226523
0.01226629
0.01226597
0.01226579
0.0122656
0.01226545
0.01226533
0.01226595
0.01226556
0.01226544
0.01226533
0.01226523
0.01226515
0.01226576
0.0122653
0.01226525
0.01226519
0.01226513
0.01226508
0.01226562
0.01226512
0.0122651
0.01226507
0.01226504
0.012265
0.01226552
0.012265
0.01226499
0.01226498
0.01226496
0.01226493
0.01226544
0.01226491
0.01226491
0.0122649
0.01226489
0.01226488
0.01226536
0.01226484
0.01226484
0.01226484
0.01226483
0.01226483
0.0122653
0.01226478
0.01226479
0.01226479
0.01226479
0.01226478
0.01226525
0.01226474
0.01226474
0.01226475
0.01226475
0.01226474
0.0122652
0.0122647
0.01226471
0.01226471
0.01226471
0.01226471
0.01226515
0.01226467
0.01226467
0.01226468
0.01226468
0.01226468
0.01226511
0.01226464
0.01226464
0.01226465
0.01226465
0.01226465
0.01226508
0.01226461
0.01226462
0.01226462
0.01226463
0.01226463
0.01226504
0.01226459
0.0122646
0.0122646
0.0122646
0.01226461
0.01226501
0.01226457
0.01226458
0.01226458
0.01226458
0.01226459
0.01226498
0.01226455
0.01226456
0.01226456
0.01226457
0.01226457
0.01226496
0.01226454
0.01226454
0.01226455
0.01226455
0.01226455
0.01226493
0.01226452
0.01226453
0.01226453
0.01226453
0.01226454
0.01226491
0.01226451
0.01226451
0.01226452
0.01226452
0.01226452
0.01226489
0.01226449
0.0122645
0.0122645
0.0122645
0.01226451
0.01226487
0.01226448
0.01226449
0.01226449
0.01226449
0.01226449
0.01233691
0.01227311
0.01226965
0.01226902
0.01226876
0.01226857
0.01227455
0.01226732
0.01226776
0.01226633
0.01226574
0.01226547
0.01226764
0.01226677
0.01226604
0.01226565
0.0122654
0.01226524
0.01226628
0.01226597
0.0122658
0.01226561
0.01226546
0.01226534
0.01226595
0.01226557
0.01226545
0.01226534
0.01226523
0.01226515
0.01226575
0.0122653
0.01226525
0.01226519
0.01226514
0.01226508
0.01226562
0.01226512
0.0122651
0.01226507
0.01226504
0.012265
0.01226552
0.012265
0.012265
0.01226498
0.01226496
0.01226493
0.01226543
0.01226491
0.01226491
0.0122649
0.01226489
0.01226488
0.01226536
0.01226484
0.01226485
0.01226484
0.01226483
0.01226483
0.0122653
0.01226479
0.01226479
0.01226479
0.01226479
0.01226478
0.01226525
0.01226474
0.01226475
0.01226475
0.01226475
0.01226474
0.0122652
0.0122647
0.01226471
0.01226471
0.01226471
0.01226471
0.01226515
0.01226467
0.01226467
0.01226468
0.01226468
0.01226468
0.01226511
0.01226464
0.01226465
0.01226465
0.01226465
0.01226465
0.01226508
0.01226461
0.01226462
0.01226462
0.01226463
0.01226463
0.01226504
0.01226459
0.0122646
0.0122646
0.0122646
0.01226461
0.01226501
0.01226457
0.01226458
0.01226458
0.01226458
0.01226459
0.01226498
0.01226455
0.01226456
0.01226456
0.01226456
0.01226457
0.01226496
0.01226454
0.01226454
0.01226455
0.01226455
0.01226455
0.01226493
0.01226452
0.01226453
0.01226453
0.01226453
0.01226453
0.01226491
0.01226451
0.01226451
0.01226452
0.01226452
0.01226452
0.01226489
0.0122645
0.0122645
0.0122645
0.0122645
0.01226451
0.01226487
0.01226448
0.01226449
0.01226449
0.01226449
0.0122645
0.01233421
0.01227586
0.01227248
0.0122713
0.01227065
0.0122702
0.01227523
0.01226792
0.01226779
0.01226646
0.01226586
0.01226556
0.01226755
0.01226681
0.01226609
0.01226568
0.01226545
0.01226529
0.01226641
0.01226602
0.01226582
0.0122656
0.01226546
0.01226534
0.01226605
0.0122656
0.01226547
0.01226534
0.01226525
0.01226517
0.01226583
0.01226533
0.01226527
0.0122652
0.01226515
0.0122651
0.01226568
0.01226515
0.01226512
0.01226508
0.01226505
0.01226502
0.01226557
0.01226502
0.01226501
0.01226499
0.01226497
0.01226495
0.01226548
0.01226493
0.01226492
0.01226491
0.0122649
0.01226489
0.0122654
0.01226486
0.01226486
0.01226485
0.01226485
0.01226484
0.01226534
0.0122648
0.0122648
0.0122648
0.0122648
0.0122648
0.01226528
0.01226475
0.01226476
0.01226476
0.01226476
0.01226476
0.01226523
0.01226472
0.01226472
0.01226472
0.01226472
0.01226472
0.01226518
0.01226468
0.01226468
0.01226469
0.01226469
0.01226469
0.01226514
0.01226465
0.01226466
0.01226466
0.01226466
0.01226466
0.0122651
0.01226463
0.01226463
0.01226463
0.01226464
0.01226464
0.01226507
0.0122646
0.01226461
0.01226461
0.01226462
0.01226462
0.01226504
0.01226458
0.01226459
0.01226459
0.01226459
0.0122646
0.01226501
0.01226456
0.01226457
0.01226457
0.01226458
0.01226458
0.01226498
0.01226455
0.01226455
0.01226455
0.01226456
0.01226456
0.01226495
0.01226453
0.01226453
0.01226454
0.01226454
0.01226455
0.01226493
0.01226452
0.01226452
0.01226452
0.01226453
0.01226453
0.01226491
0.01226451
0.01226451
0.01226451
0.01226451
0.01226452
0.01226496
0.01226449
0.0122645
0.0122645
0.0122645
0.0122645
0.01268537
0.01242839
0.01240009
0.01238381
0.01237141
0.01236162
0.01227918
0.01227052
0.01226865
0.01226751
0.01226711
0.0122669
0.01226679
0.01227522
0.01226931
0.01226698
0.01226616
0.0122658
0.01226556
0.01226541
0.01227225
0.01226698
0.01226613
0.01226567
0.01226544
0.01226527
0.01226517
0.01227102
0.01226624
0.01226565
0.01226538
0.01226523
0.01226512
0.01226504
0.01227021
0.01226563
0.0122653
0.01226513
0.01226505
0.01226497
0.01226492
0.01226965
0.01226524
0.01226505
0.01226494
0.0122649
0.01226485
0.01226482
0.01226922
0.01226499
0.01226487
0.01226479
0.01226477
0.01226474
0.01226472
0.01226888
0.0122648
0.01226472
0.01226467
0.01226466
0.01226464
0.01226464
0.01226859
0.01226465
0.01226461
0.01226457
0.01226456
0.01226456
0.01226456
0.01226835
0.01226454
0.01226451
0.01226448
0.01226448
0.01226448
0.01226449
0.01226814
0.01226444
0.01226443
0.01226441
0.01226441
0.01226441
0.01226443
0.01226795
0.01226436
0.01226437
0.01226434
0.01226435
0.01226435
0.01226437
0.01226778
0.01226429
0.01226431
0.01226429
0.01226429
0.0122643
0.01226432
0.01226762
0.01226423
0.01226425
0.01226424
0.01226424
0.01226425
0.01226427
0.01226748
0.01226418
0.01226421
0.01226419
0.0122642
0.0122642
0.01226422
0.01226735
0.01226413
0.01226416
0.01226415
0.01226415
0.01226416
0.01226418
0.01226722
0.01226409
0.01226412
0.01226411
0.01226412
0.01226413
0.01226415
0.01226711
0.01226405
0.01226409
0.01226408
0.01226408
0.01226409
0.01226411
0.01226701
0.01226401
0.01226406
0.01226404
0.01226405
0.01226406
0.01226408
0.01226691
0.01226398
0.01226403
0.01226402
0.01226402
0.01226403
0.01226405
0.01226682
0.01226395
0.012264
0.01226399
0.01226399
0.012264
0.01226402
0.01226674
0.01226392
0.01226397
0.01226396
0.01226397
0.01226398
0.01226399
0.01226666
0.00198168
0.01226395
0.01226394
0.01226395
0.01226395
0.01226397
0.004190855
0.01234977
0.01228537
0.01228744
0.004160696
0.00432451
0.01268562
0.01232344
0.01228493
0.01227665
0.004324353
0.004328831
0.0124283
0.0123126
0.01227599
0.01227458
0.00432436
0.004326437
0.01240004
0.01230693
0.01227344
0.0122726
0.004321797
0.004324159
0.01238377
0.01230414
0.01227219
0.0122714
0.004319537
0.004321979
0.0123714
0.01230147
0.0122714
0.01227078
0.004317184
0.01236158
0.0122706
0.004156798
0.004318667
0.01227882
0.01227434
0.01227374
0.0122735
0.004319266
0.004321993
0.01227478
0.01226982
0.01227092
0.012269
0.00431939
0.004319028
0.01227185
0.01226767
0.01226994
0.01226771
0.004316814
0.004316408
0.01227066
0.01226688
0.01226938
0.01226697
0.004314555
0.004314221
0.01226987
0.01226641
0.01226897
0.01226653
0.004312646
0.004312376
0.01226933
0.01226612
0.01226865
0.01226623
0.00431101
0.004310788
0.01226892
0.01226591
0.01226838
0.01226601
0.004309585
0.004309399
0.01226859
0.01226575
0.01226815
0.01226584
0.004308326
0.004308167
0.01226832
0.01226562
0.01226795
0.0122657
0.0043072
0.004307065
0.01226809
0.01226552
0.01226777
0.01226559
0.004306185
0.004306069
0.01226789
0.01226543
0.01226761
0.01226549
0.004305263
0.004305162
0.01226771
0.01226535
0.01226747
0.01226541
0.004304421
0.004304333
0.01226755
0.01226529
0.01226734
0.01226533
0.004303648
0.00430357
0.0122674
0.01226523
0.01226722
0.01226527
0.004302934
0.004302864
0.01226726
0.01226518
0.01226711
0.01226521
0.004302274
0.00430221
0.01226714
0.01226513
0.01226701
0.01226516
0.004301661
0.004301603
0.01226702
0.01226509
0.01226691
0.01226512
0.00430109
0.004301037
0.01226692
0.01226505
0.01226682
0.01226508
0.004300558
0.004300506
0.01226682
0.01226501
0.01226674
0.01226504
0.004300057
0.0043
0.01226673
0.01226498
0.01226666
0.012265
0.004299573
0.004299459
0.01226665
0.01226495
0.01226659
0.01226497
0.004299014
0.004298481
0.01226657
0.01226492
0.01226652
0.01226494
0.00429773
0.01226134
0.01226666
0.0122649
0.01226629
0.01226474
0.01283155
0.01227504
0.0122881
0.01298124
0.0122746
0.0122899
0.01295664
0.01227356
0.01229148
0.01301094
0.01227396
0.01229168
0.01299546
0.01227345
0.01229171
0.01301362
0.01227389
0.01229173
0.01301136
0.01227344
0.01229169
0.01301533
0.01227388
0.01229168
0.01301536
0.01227344
0.01229167
0.0130107
0.01227387
0.01229169
0.01301437
0.01227345
0.01229171
0.0129994
0.01227393
0.01229171
0.01301077
0.01227356
0.01229169
0.01295848
0.01227401
0.0122915
0.01297958
0.01227409
0.01228991
0.012832
0.01227538
0.01228809
0.01235053
0.0122849
0.01228745
0.004190844
0.0123231
0.01228493
0.01227665
0.004160683
0.004324501
0.0123122
0.01227599
0.01227457
0.004324355
0.004328869
0.01230653
0.01227344
0.0122726
0.004324382
0.004326395
0.01230372
0.01227219
0.0122714
0.004321782
0.004324203
0.01230106
0.0122714
0.01227078
0.004319555
0.004321982
0.01226651
0.01226938
0.01226697
0.004316838
0.004316409
0.01226579
0.01226865
0.01226623
0.004312663
0.004312392
0.01226558
0.01226838
0.01226601
0.004311018
0.004310792
0.01226544
0.01226815
0.01226584
0.00430959
0.004309411
0.01226533
0.01226795
0.0122657
0.004308338
0.004308193
0.01226524
0.01226777
0.01226559
0.004307221
0.004307077
0.01226505
0.01226734
0.01226533
0.004304431
0.004304345
0.01226499
0.01226722
0.01226527
0.004303661
0.004303582
0.01226495
0.01226711
0.01226521
0.004302948
0.004302876
0.01226491
0.012267
0.01226516
0.004302288
0.004302223
0.01226485
0.01226682
0.01226508
0.004301107
0.00430105
0.01226482
0.01226674
0.01226504
0.004300575
0.004300524
0.01226477
0.01226659
0.01226497
0.004299576
0.004299471
0.01226474
0.01226652
0.01226494
0.004299007
0.004298488
0.0122649
0.01226629
0.01226491
0.004297729
0.0122613
0.01231249
0.008893523
0.0122902
0.008998737
0.01228377
0.009011101
0.01228325
0.008986345
0.01227617
0.008992232
0.01228081
0.008965115
0.01227349
0.008974918
0.01227934
0.00895006
0.01227204
0.008961721
0.01227828
0.008937894
0.01227134
0.008951168
0.01227743
0.008928055
0.01227091
0.008942238
0.01228224
0.008975004
0.01229087
0.008988125
0.01227309
0.008964744
0.01227575
0.008964478
0.0122706
0.008945503
0.01227178
0.008945147
0.01226949
0.008931033
0.01227016
0.008930704
0.01226878
0.008919496
0.01226923
0.0089192
0.01226827
0.008909953
0.0122686
0.008909687
0.01226789
0.008901837
0.01226813
0.008901601
0.01226758
0.008894795
0.01226777
0.008894585
0.01226733
0.00888859
0.01226748
0.008888401
0.01226711
0.008883058
0.01226723
0.008882891
0.01226692
0.008878078
0.01226703
0.008877931
0.01226676
0.00887356
0.01226685
0.008873431
0.01226662
0.008869436
0.01226669
0.00886932
0.01226649
0.00886565
0.01226655
0.008865547
0.01226637
0.00886216
0.01226643
0.008862066
0.01226627
0.008858931
0.01226632
0.008858847
0.01226618
0.008855935
0.01226621
0.008855858
0.01226609
0.008853149
0.01226612
0.008853079
0.01226601
0.008850551
0.01226604
0.008850488
0.01226594
0.008848123
0.01226596
0.008848067
0.01226587
0.008845853
0.01226589
0.008845801
0.01226581
0.008843714
0.01226583
0.008843644
0.01226575
0.008841525
0.01226577
0.008840927
0.01230502
0.01230603
0.01230409
0.01230527
0.01230416
0.01230331
0.01230494
0.01230414
0.01230488
0.0123038
0.01230501
0.01230346
0.01230346
0.01230442
0.01230379
0.01230436
0.01230765
0.01231138
0.0122706
0.004317207
0.01227382
0.01227373
0.0122735
0.004156752
0.004318643
0.01226936
0.01227092
0.012269
0.004319235
0.004321997
0.01226725
0.01226994
0.01226771
0.004319388
0.004319052
0.01226604
0.01226897
0.01226653
0.004314538
0.004314256
0.01226516
0.01226761
0.01226549
0.0043062
0.004306095
0.0122651
0.01226747
0.01226541
0.004305289
0.004305169
0.01226488
0.01226691
0.01226512
0.004301681
0.00430162
0.01226479
0.01226666
0.012265
0.004300083
0.004299994
0.01229626
0.00901055
0.01230369
0.008697955
0.01229891
0.008988785
0.01231463
0.008682953
0.01230725
0.01231245
0.01227582
0.009008528
0.01228519
0.008994
0.01227254
0.008988085
0.01228238
0.008974631
0.01227164
0.00897269
0.0122808
0.008957829
0.01227137
0.008960575
0.01227963
0.008943975
0.01227113
0.008950679
0.01227865
0.008933163
0.01227807
0.008978116
0.01227644
0.008976102
0.01227242
0.00895492
0.01227176
0.008955378
0.01227038
0.008938184
0.0122701
0.0089386
0.01226935
0.008925245
0.01226916
0.008925587
0.01226868
0.008914737
0.01226854
0.008915019
0.0122682
0.00890593
0.01226809
0.008906162
0.01226783
0.008898367
0.01226773
0.008898559
0.01226754
0.008891756
0.01226745
0.008891915
0.01226729
0.008885895
0.01226721
0.008886028
0.01226708
0.008880644
0.01226701
0.008880757
0.01226689
0.008875897
0.01226683
0.008875993
0.01226673
0.008871578
0.01226668
0.008871657
0.01226659
0.008867623
0.01226654
0.008867693
0.01226647
0.008863984
0.01226642
0.008864047
0.01226635
0.008860624
0.01226631
0.008860679
0.01226625
0.00885751
0.01226621
0.00885756
0.01226616
0.008854618
0.01226612
0.008854661
0.01226607
0.008851924
0.01226604
0.008851961
0.01226599
0.00884941
0.01226596
0.008849441
0.01226592
0.00884706
0.01226589
0.008847088
0.01226585
0.008844851
0.01226583
0.008844881
0.01226579
0.008842649
0.01226577
0.008842773
0.01226573
0.01225817
0.008839713
0.01226539
0.01230398
0.01230531
0.01230416
0.01230435
0.0123037
0.01230374
0.01230458
0.01230412
0.0123037
0.01230368
0.0123053
0.01230524
0.01230449
0.0123039
0.01230549
0.01230527
0.01231314
0.008893124
0.01227585
0.009007322
0.01228616
0.008994018
0.01228325
0.008986528
0.01227617
0.008992246
0.01226949
0.008930246
0.01227017
0.00892991
0.01226827
0.008909157
0.0122686
0.008909715
0.0122682
0.008905953
0.01226809
0.00890619
0.01226789
0.008901872
0.01226812
0.008901625
0.01226709
0.008880668
0.01226701
0.008880778
0.01226662
0.00886954
0.01226669
0.008869345
0.01226659
0.00886765
0.01226654
0.00886772
0.01226649
0.00886568
0.01226654
0.008865574
0.01226647
0.008864009
0.01226642
0.008864075
0.01226637
0.008862184
0.01226642
0.008862089
0.01226635
0.008860649
0.01226631
0.008860705
0.01226627
0.008858955
0.01226631
0.00885887
0.01226625
0.008857536
0.01226621
0.008857586
0.01226609
0.008853176
0.01226612
0.008853107
0.01226607
0.008851954
0.01226604
0.008851988
0.01226601
0.00885058
0.01226603
0.008850516
0.01226599
0.008849439
0.01226596
0.008849469
0.01226587
0.008845067
0.0122659
0.008845837
0.01226585
0.008844899
0.01226583
0.008844921
0.01226581
0.008843763
0.01226582
0.008843719
0.01226579
0.008842621
0.01226577
0.008842863
0.01226575
0.008841555
0.01226576
0.008840848
0.01226573
0.0118918
0.008839703
0.01226537
0.01253875
0.009309182
0.01249299
0.008620249
0.01258456
0.008613578
0.0124328
0.008592552
0.01251422
0.008588771
0.01240108
0.008576344
0.01246089
0.008574049
0.01237929
0.008564894
0.01242741
0.008563555
0.01236432
0.008556079
0.01240449
0.008555423
0.01235274
0.008548936
0.01238645
0.008548808
0.0126997
0.01270687
0.01270016
0.01270691
0.01270893
0.01270835
0.01269974
0.01271155
0.01270934
0.01271362
0.0127115
0.01270632
0.01270659
0.01270085
0.01270133
0.01270031
0.01268302
0.01270565
0.01254077
0.008627884
0.01279834
0.008626495
0.01269152
0.01270401
0.01244313
0.008598378
0.01266868
0.008596256
0.01240478
0.008581567
0.01257301
0.008578283
0.01237922
0.008569745
0.01251978
0.008565989
0.01236107
0.008560739
0.01248197
0.008556671
0.01234677
0.008553473
0.01245306
0.008549212
0.01270051
0.01270685
0.01270872
0.01269404
0.01270441
0.01270601
0.01271416
0.0127086
0.01271174
0.01270401
0.01271069
0.01270954
0.01270865
0.01270706
0.01269551
0.01270786
0.01254253
0.009307296
0.01229637
0.009009212
0.01230481
0.008697658
0.01229931
0.008987991
0.01231461
0.00868303
0.01228916
0.008998957
0.01228375
0.009012578
0.01243276
0.008592558
0.008588763
0.01251421
0.01227256
0.008986397
0.01228318
0.00897459
0.01228071
0.008964249
0.01227348
0.008974102
0.01227166
0.008972456
0.01228166
0.008957247
0.01227936
0.0089505
0.01227205
0.008961837
0.01227818
0.008937077
0.01227132
0.008950357
0.01227113
0.008950653
0.0122794
0.008932614
0.01226935
0.008924442
0.01226917
0.008924791
0.01226726
0.008547548
0.01226793
0.008548129
0.01226739
0.008545844
0.008545328
0.01226698
0.01226783
0.008898859
0.01226773
0.008898644
0.01226758
0.00889491
0.01226776
0.008894612
0.01226754
0.00889178
0.01226745
0.008891943
0.01226733
0.008888622
0.01226747
0.008887604
0.01226729
0.008885095
0.01226721
0.008885234
0.01226711
0.008882266
0.01226723
0.008882917
0.01226641
0.008523121
0.01226666
0.008523513
0.01226571
0.008503671
0.01226578
0.008503954
0.01226572
0.008502986
0.008502818
0.0122656
0.012265
0.008483593
0.008484121
0.012265
0.01397226
0.008642522
0.01260151
0.008636443
0.01236656
0.008690079
0.01231879
0.008637904
0.01268138
0.01267867
0.01247188
0.008608314
0.01269258
0.008609368
0.01241867
0.008587056
0.01258038
0.008585759
0.01238846
0.00857333
0.01251938
0.008571099
0.0123667
0.008563334
0.0124785
0.008560595
0.01235083
0.008555449
0.01244943
0.008552366
0.01233861
0.008548963
0.01242739
0.008545642
0.0127065
0.01270797
0.01270784
0.01271226
0.01269545
0.01270865
0.01271003
0.01270915
0.01270139
0.01270053
0.01270069
0.01271054
0.01271289
0.01270295
0.01270639
0.0127075
0.01267748
0.01265278
0.008928177
0.01227158
0.01227732
0.008974177
0.0122908
0.008988264
0.01228217
0.008978624
0.008976636
0.01227806
0.01227643
0.008965066
0.008964482
0.01227309
0.0122757
0.008954165
0.008955635
0.01227241
0.01227176
0.008944812
0.008944375
0.01227061
0.01227175
0.008937394
0.01227013
0.008937826
0.01227038
0.008918721
0.01226922
0.008918405
0.01226877
0.008913939
0.01226856
0.008914223
0.01226868
0.008878109
0.01226702
0.008877133
0.01226692
0.008872766
0.008872609
0.01226676
0.01226685
0.008855962
0.01226621
0.008855065
0.01226617
0.008848151
0.01226596
0.008847276
0.01226593
0.008846273
0.0122659
0.0088463
0.01226592
0.01255465
0.008623348
0.01262627
0.008626096
0.01267401
0.01265312
0.012456
0.008602806
0.01252593
0.008599431
0.01241767
0.008582576
0.01246396
0.008580997
0.0123909
0.008569262
0.01242708
0.008568688
0.01237286
0.008559385
0.01240213
0.008559466
0.01235962
0.008551543
0.01238368
0.008552102
0.01270596
0.01270847
0.01271192
0.01270721
0.01271071
0.01271072
0.01271074
0.01270141
0.01271206
0.01270859
0.01271097
0.01271053
0.01270707
0.01269454
0.01269728
0.0127053
0.01268779
0.01267741
0.0139677
0.008636672
0.00863011
0.01260271
0.01236518
0.008693033
0.008639291
0.01231865
0.01241863
0.008587017
0.008585737
0.01258031
0.0122671
0.008543668
0.008544202
0.01226756
0.01226653
0.008524534
0.01226632
0.008524257
0.01226577
0.008505223
0.008505509
0.0122658
0.01226577
0.008504589
0.01226566
0.008504438
0.01226659
0.01226135
0.01226659
0.01226488
0.01226487
0.01226131
0.01225816
0.01226539
0.01189605
0.01226537
0.01226499
0.00848287
0.008482613
0.01226493
0.01227514
0.008647833
0.01227984
0.008643947
0.01227164
0.008611537
0.01227027
0.008609793
0.01227002
0.008590536
0.01226863
0.008589378
0.01226894
0.008575498
0.01226797
0.00857461
0.01226825
0.008563728
0.01226756
0.008562997
0.01226776
0.008554074
0.01226725
0.00855346
0.0122674
0.008545904
0.01226699
0.008545384
0.0122671
0.00853884
0.01226677
0.008538393
0.01226685
0.008532631
0.01226658
0.008532241
0.01226663
0.008527103
0.0122664
0.00852676
0.01226644
0.008522132
0.01226624
0.008521828
0.01226627
0.008517625
0.0122661
0.008517354
0.01226612
0.008513514
0.01226596
0.008513272
0.01226597
0.008509742
0.01226584
0.008509525
0.01226584
0.008506266
0.01226572
0.008506071
0.01226572
0.008503049
0.01226561
0.008502875
0.0122656