/*--------------------------------*- C++ -*----------------------------------*\
  =========                 |
  \\      /  F ield         | OpenFOAM: The Open Source CFD Toolbox
   \\    /   O peration     | Website:  https://openfoam.org
    \\  /    A nd           | Version:  7
     \\/     M anipulation  |
\*---------------------------------------------------------------------------*/
FoamFile
{
    version     2.0;
    format      ascii;
    class       volScalarField;
    location    "0.01";
    object      epsilon;
}
// * * * * * * * * * * * * * * * * * * * * * * * * * * * * * * * * * * * * * //

dimensions      [0 2 -3 0 0 0 0];

internalField   nonuniform List<scalar> 
76598
(
0.004615404
0.004580207
0.004578219
0.004577475
0.004576467
0.004575525
0.004574724
0.004574123
0.0009440904
0.0009683325
0.0009754846
0.0009764121
0.0009761512
0.0009760111
0.0009761758
0.0009764451
0.0009623007
0.001003102
0.001012896
0.001011721
0.001010403
0.001009824
0.001010182
0.001012641
0.000967863
0.001011297
0.001018674
0.001000429
0.001000442
0.000998945
0.0009935341
0.001009341
0.0009684953
0.001009878
0.001000276
0.0009914082
0.002190079
0.002170785
0.0009640119
0.0009650281
0.0009683662
0.001008963
0.001001009
0.002191242
0.00204821
0.004393772
0.001979999
0.002033192
0.0009686351
0.001009662
0.001002653
0.002182901
0.004377078
0.00096942
0.001012206
0.001005603
0.001000802
0.000976094
0.0009605132
0.0009575929
0.0009576467
0.000970362
0.001016937
0.001029454
0.001028916
0.001024143
0.001019777
0.001018062
0.001017434
0.0009710413
0.001020207
0.001036978
0.00104061
0.001040499
0.001039596
0.001038836
0.001038301
0.0009713816
0.001021273
0.001039212
0.001044262
0.001045509
0.001045592
0.001045289
0.001044899
0.000971531
0.001021676
0.001040002
0.001045531
0.001047227
0.001047641
0.001047522
0.001047217
0.0009716111
0.001021865
0.001040346
0.001046054
0.00104792
0.001048465
0.001048424
0.001048161
0.000971658
0.001021962
0.001040508
0.001046289
0.001048224
0.001048822
0.001048816
0.001048571
0.0009716875
0.001022015
0.001040591
0.001046403
0.001048367
0.001048987
0.001048995
0.001048758
0.0009717112
0.001022051
0.001040639
0.001046463
0.00104844
0.001049068
0.001049081
0.001048848
0.0009717314
0.001022078
0.001040672
0.001046502
0.001048483
0.001049114
0.001049129
0.001048894
0.0009717495
0.0010221
0.001040698
0.001046531
0.001048512
0.001049144
0.001049159
0.001048922
0.0009717686
0.001022122
0.001040723
0.001046555
0.001048536
0.001049166
0.001049179
0.001048941
0.0009717888
0.001022145
0.001040746
0.001046578
0.001048559
0.001049187
0.001049197
0.001048955
0.0009718099
0.001022168
0.00104077
0.001046601
0.001048579
0.001049203
0.001049209
0.001048963
0.0009718328
0.001022191
0.00104079
0.001046616
0.00104859
0.001049208
0.001049208
0.001048957
0.0009718542
0.001022206
0.001040797
0.001046612
0.001048575
0.001049183
0.001049174
0.001048916
0.0009718696
0.001022202
0.00104077
0.001046562
0.001048501
0.001049092
0.001049071
0.001048804
0.002064034
0.00097647
0.0009905862
0.0009955086
0.0009962512
0.0009960077
0.0009955051
0.0009949482
0.0122644
0.01226379
0.01226331
0.01226333
0.01226334
0.01226332
0.01226328
0.01226324
0.01226323
0.01226444
0.01226383
0.01226386
0.01226388
0.01226389
0.01226386
0.0122638
0.01226375
0.01226372
0.01226449
0.01226388
0.01226392
0.01226382
0.01226346
0.01226341
0.01226354
0.0122636
0.01226366
0.01226455
0.01226395
0.01226403
0.01226334
0.01226303
0.01226496
0.01226462
0.01226338
0.01226352
0.01226462
0.01226404
0.01226414
0.01226314
0.01226603
0.01227093
0.01225454
0.01226179
0.0122624
0.0122647
0.01226408
0.0122642
0.01226338
0.0122659
0.01227049
0.003775567
0.003692564
0.01226477
0.01226406
0.01226413
0.01226382
0.01226453
0.01226478
0.0122645
0.0122642
0.01226408
0.01226482
0.01226403
0.01226407
0.01226412
0.01226415
0.01226424
0.01226421
0.01226407
0.01226405
0.01226486
0.01226402
0.01226404
0.01226406
0.01226408
0.0122641
0.01226404
0.01226405
0.01226403
0.0122649
0.01226401
0.01226402
0.01226403
0.01226404
0.01226405
0.01226403
0.01226401
0.01226402
0.01226492
0.01226401
0.01226401
0.01226402
0.01226402
0.01226402
0.01226401
0.012264
0.012264
0.01226495
0.01226401
0.01226401
0.01226401
0.01226401
0.01226402
0.01226401
0.012264
0.012264
0.01226497
0.01226401
0.01226402
0.01226401
0.01226401
0.01226401
0.01226401
0.012264
0.012264
0.012265
0.01226402
0.01226402
0.01226402
0.01226402
0.01226402
0.01226402
0.012264
0.012264
0.01226502
0.01226403
0.01226403
0.01226402
0.01226402
0.01226402
0.01226402
0.01226401
0.01226401
0.01226504
0.01226403
0.01226404
0.01226403
0.01226403
0.01226403
0.01226403
0.01226402
0.01226401
0.01226507
0.01226404
0.01226405
0.01226404
0.01226404
0.01226404
0.01226404
0.01226403
0.01226402
0.0122651
0.01226406
0.01226406
0.01226406
0.01226406
0.01226405
0.01226405
0.01226404
0.01226403
0.01226513
0.01226407
0.01226407
0.01226407
0.01226407
0.01226407
0.01226407
0.01226405
0.01226404
0.01226517
0.01226409
0.01226409
0.01226409
0.01226409
0.01226409
0.01226408
0.01226407
0.01226406
0.01226521
0.01226411
0.01226411
0.01226411
0.01226411
0.01226411
0.0122641
0.01226408
0.01226407
0.01226525
0.01226414
0.01226414
0.01226414
0.01226414
0.01226413
0.01226413
0.01226411
0.01226409
0.01226498
0.01226417
0.01226417
0.01226417
0.01226417
0.01226417
0.01226416
0.01226413
0.01226412
0.002081841
0.0009934637
0.00102033
0.001028688
0.001030231
0.001030027
0.001029325
0.001028418
0.01226441
0.01226427
0.01226379
0.01226381
0.01226382
0.0122638
0.01226376
0.01226373
0.01226371
0.01226429
0.01226429
0.01226431
0.01226433
0.01226434
0.01226432
0.01226425
0.0122642
0.01226417
0.01226432
0.01226435
0.01226437
0.01226442
0.01226448
0.01226444
0.01226433
0.01226422
0.01226418
0.01226437
0.01226442
0.01226448
0.0122646
0.01226482
0.012265
0.01226462
0.01226428
0.01226195
0.01226442
0.0122645
0.01226459
0.01226491
0.01226603
0.01227105
0.01225432
0.01226183
0.001263816
0.01226446
0.01226454
0.01226466
0.012265
0.01226583
0.01227033
0.00376208
0.001251517
0.01226446
0.01226451
0.01226459
0.01226471
0.012265
0.01226526
0.01226496
0.01226466
0.01226406
0.01226447
0.01226449
0.01226452
0.01226458
0.01226465
0.01226471
0.01226467
0.01226454
0.01226452
0.01226447
0.01226447
0.0122645
0.01226452
0.01226454
0.01226456
0.01226453
0.01226451
0.0122645
0.01226448
0.01226446
0.01226448
0.01226449
0.0122645
0.01226451
0.0122645
0.01226449
0.01226448
0.01226448
0.01226446
0.01226447
0.01226448
0.01226448
0.01226448
0.01226448
0.01226448
0.01226448
0.01226449
0.01226446
0.01226447
0.01226447
0.01226447
0.01226448
0.01226448
0.01226448
0.01226447
0.0122645
0.01226447
0.01226447
0.01226447
0.01226447
0.01226448
0.01226448
0.01226448
0.01226448
0.01226451
0.01226447
0.01226448
0.01226448
0.01226448
0.01226448
0.01226448
0.01226448
0.01226448
0.01226451
0.01226448
0.01226448
0.01226448
0.01226448
0.01226448
0.01226449
0.01226449
0.01226449
0.01226452
0.01226449
0.01226449
0.01226449
0.01226449
0.01226449
0.01226449
0.01226449
0.01226449
0.01226453
0.0122645
0.0122645
0.0122645
0.0122645
0.0122645
0.0122645
0.0122645
0.0122645
0.01226455
0.01226451
0.01226451
0.01226451
0.01226451
0.01226452
0.01226452
0.01226451
0.01226451
0.01226456
0.01226453
0.01226453
0.01226453
0.01226453
0.01226453
0.01226453
0.01226453
0.01226452
0.01226458
0.01226454
0.01226455
0.01226455
0.01226455
0.01226455
0.01226455
0.01226454
0.01226454
0.01226459
0.01226456
0.01226457
0.01226457
0.01226457
0.01226457
0.01226457
0.01226456
0.01226456
0.01226462
0.01226459
0.01226459
0.01226459
0.0122646
0.01226459
0.01226459
0.01226459
0.01226458
0.01226464
0.01226462
0.01226462
0.01226463
0.01226463
0.01226463
0.01226462
0.01226461
0.0122646
0.002085156
0.0009998873
0.001030338
0.00104073
0.001042689
0.001042463
0.001041564
0.001040345
0.01226441
0.01226426
0.01226379
0.01226382
0.01226383
0.0122638
0.01226376
0.01226373
0.01226372
0.01226428
0.01226429
0.01226432
0.01226433
0.01226435
0.01226432
0.01226425
0.0122642
0.01226417
0.0122643
0.01226434
0.01226437
0.01226442
0.01226448
0.01226444
0.01226433
0.01226421
0.01226418
0.01226435
0.01226442
0.01226448
0.0122646
0.01226482
0.012265
0.01226462
0.01226428
0.01226193
0.01226438
0.0122645
0.01226459
0.01226491
0.01226603
0.01227109
0.01225422
0.01226167
0.001327649
0.01226441
0.01226453
0.01226465
0.012265
0.01226589
0.01227032
0.003863392
0.001321046
0.01226443
0.01226451
0.01226459
0.0122647
0.012265
0.01226527
0.01226494
0.0122647
0.01226407
0.01226444
0.01226448
0.01226452
0.01226458
0.01226465
0.01226471
0.01226468
0.01226453
0.01226451
0.01226445
0.01226447
0.01226449
0.01226452
0.01226454
0.01226456
0.01226453
0.01226452
0.0122645
0.01226446
0.01226446
0.01226447
0.01226449
0.0122645
0.01226451
0.0122645
0.01226449
0.01226448
0.01226446
0.01226446
0.01226447
0.01226448
0.01226448
0.01226448
0.01226448
0.01226448
0.01226448
0.01226447
0.01226446
0.01226447
0.01226447
0.01226447
0.01226448
0.01226448
0.01226448
0.01226448
0.01226448
0.01226446
0.01226447
0.01226447
0.01226447
0.01226448
0.01226448
0.01226448
0.01226448
0.01226449
0.01226446
0.01226447
0.01226448
0.01226448
0.01226448
0.01226448
0.01226448
0.01226448
0.0122645
0.01226447
0.01226448
0.01226448
0.01226448
0.01226448
0.01226449
0.01226449
0.01226449
0.01226451
0.01226448
0.01226449
0.01226449
0.01226449
0.01226449
0.01226449
0.01226449
0.01226449
0.01226451
0.01226449
0.0122645
0.0122645
0.0122645
0.0122645
0.0122645
0.0122645
0.0122645
0.01226453
0.0122645
0.01226451
0.01226451
0.01226451
0.01226452
0.01226452
0.01226451
0.01226451
0.01226454
0.01226452
0.01226452
0.01226453
0.01226453
0.01226453
0.01226453
0.01226453
0.01226452
0.01226455
0.01226453
0.01226454
0.01226455
0.01226455
0.01226455
0.01226455
0.01226454
0.01226454
0.01226457
0.01226455
0.01226456
0.01226457
0.01226457
0.01226457
0.01226457
0.01226456
0.01226456
0.01226459
0.01226458
0.01226459
0.01226459
0.0122646
0.01226459
0.01226459
0.01226459
0.01226458
0.01226461
0.01226461
0.01226462
0.01226463
0.01226463
0.01226463
0.01226462
0.01226461
0.0122646
0.002085767
0.001001163
0.001032409
0.001043207
0.001045274
0.001045007
0.001043995
0.001042619
0.01226441
0.01226426
0.01226379
0.01226381
0.01226383
0.0122638
0.01226376
0.01226373
0.01226372
0.01226428
0.01226429
0.01226431
0.01226433
0.01226435
0.01226432
0.01226425
0.0122642
0.01226417
0.0122643
0.01226434
0.01226437
0.01226442
0.01226448
0.01226444
0.01226433
0.01226421
0.01226418
0.01226435
0.01226441
0.01226447
0.0122646
0.01226482
0.012265
0.01226462
0.01226428
0.01226191
0.01226438
0.0122645
0.01226459
0.01226491
0.01226603
0.01227107
0.01225421
0.01226162
0.001355232
0.01226441
0.01226453
0.01226465
0.012265
0.01226589
0.01227031
0.00389665
0.001351056
0.01226443
0.01226451
0.01226459
0.0122647
0.01226501
0.01226528
0.01226493
0.01226472
0.01226407
0.01226444
0.01226448
0.01226452
0.01226457
0.01226465
0.01226471
0.01226469
0.01226453
0.01226451
0.01226445
0.01226446
0.01226449
0.01226451
0.01226454
0.01226456
0.01226453
0.01226452
0.0122645
0.01226446
0.01226445
0.01226447
0.01226449
0.0122645
0.01226451
0.0122645
0.01226449
0.01226448
0.01226446
0.01226445
0.01226446
0.01226447
0.01226448
0.01226448
0.01226448
0.01226448
0.01226448
0.01226447
0.01226445
0.01226446
0.01226447
0.01226447
0.01226448
0.01226448
0.01226448
0.01226447
0.01226448
0.01226446
0.01226446
0.01226447
0.01226447
0.01226448
0.01226448
0.01226448
0.01226448
0.01226449
0.01226446
0.01226447
0.01226447
0.01226448
0.01226448
0.01226448
0.01226448
0.01226448
0.0122645
0.01226447
0.01226447
0.01226448
0.01226448
0.01226448
0.01226449
0.01226449
0.01226449
0.01226451
0.01226448
0.01226448
0.01226449
0.01226449
0.01226449
0.01226449
0.01226449
0.01226449
0.01226452
0.01226449
0.01226449
0.0122645
0.0122645
0.0122645
0.0122645
0.0122645
0.0122645
0.01226453
0.0122645
0.0122645
0.01226451
0.01226451
0.01226451
0.01226451
0.01226451
0.01226451
0.01226454
0.01226451
0.01226452
0.01226452
0.01226453
0.01226453
0.01226453
0.01226453
0.01226452
0.01226455
0.01226453
0.01226454
0.01226454
0.01226455
0.01226455
0.01226455
0.01226454
0.01226454
0.01226457
0.01226455
0.01226456
0.01226456
0.01226457
0.01226457
0.01226457
0.01226456
0.01226456
0.01226459
0.01226457
0.01226458
0.01226459
0.01226459
0.01226459
0.01226459
0.01226458
0.01226458
0.01226461
0.01226461
0.01226462
0.01226462
0.01226463
0.01226463
0.01226462
0.01226461
0.0122646
0.002085431
0.00100029
0.001030879
0.001041325
0.001043274
0.001042997
0.001042064
0.001040906
0.01226441
0.01226426
0.01226379
0.01226381
0.01226382
0.0122638
0.01226376
0.01226373
0.01226372
0.01226428
0.01226429
0.01226431
0.01226433
0.01226435
0.01226432
0.01226425
0.0122642
0.01226417
0.0122643
0.01226434
0.01226437
0.01226442
0.01226448
0.01226444
0.01226433
0.01226421
0.01226418
0.01226435
0.01226441
0.01226447
0.0122646
0.01226482
0.012265
0.01226462
0.01226428
0.01226191
0.01226438
0.0122645
0.01226459
0.01226491
0.01226603
0.01227107
0.01225421
0.01226163
0.001355223
0.01226441
0.01226453
0.01226465
0.012265
0.01226589
0.0122703
0.003900486
0.001351178
0.01226443
0.01226451
0.01226459
0.0122647
0.01226501
0.01226528
0.01226493
0.01226472
0.01226407
0.01226444
0.01226448
0.01226452
0.01226457
0.01226465
0.01226471
0.01226469
0.01226453
0.01226451
0.01226445
0.01226447
0.01226449
0.01226451
0.01226454
0.01226456
0.01226453
0.01226452
0.0122645
0.01226446
0.01226445
0.01226447
0.01226449
0.0122645
0.01226451
0.0122645
0.01226449
0.01226448
0.01226446
0.01226445
0.01226446
0.01226447
0.01226448
0.01226448
0.01226448
0.01226448
0.01226448
0.01226447
0.01226445
0.01226446
0.01226447
0.01226447
0.01226448
0.01226448
0.01226448
0.01226447
0.01226448
0.01226446
0.01226446
0.01226447
0.01226447
0.01226448
0.01226448
0.01226448
0.01226448
0.01226449
0.01226446
0.01226447
0.01226447
0.01226448
0.01226448
0.01226448
0.01226448
0.01226448
0.0122645
0.01226447
0.01226447
0.01226448
0.01226448
0.01226448
0.01226449
0.01226449
0.01226449
0.01226451
0.01226448
0.01226448
0.01226449
0.01226449
0.01226449
0.01226449
0.01226449
0.01226449
0.01226452
0.01226449
0.01226449
0.0122645
0.0122645
0.0122645
0.0122645
0.0122645
0.0122645
0.01226453
0.0122645
0.0122645
0.01226451
0.01226451
0.01226451
0.01226451
0.01226451
0.01226451
0.01226454
0.01226451
0.01226452
0.01226452
0.01226453
0.01226453
0.01226453
0.01226453
0.01226452
0.01226455
0.01226453
0.01226454
0.01226454
0.01226455
0.01226455
0.01226455
0.01226454
0.01226454
0.01226457
0.01226455
0.01226456
0.01226456
0.01226457
0.01226457
0.01226457
0.01226456
0.01226456
0.01226459
0.01226457
0.01226458
0.01226459
0.01226459
0.01226459
0.01226459
0.01226458
0.01226458
0.01226461
0.01226461
0.01226461
0.01226462
0.01226463
0.01226463
0.01226462
0.01226461
0.0122646
0.002084608
0.000994749
0.001022034
0.001030542
0.001032085
0.001031807
0.00103113
0.001031309
0.01226441
0.01226426
0.01226379
0.01226381
0.01226382
0.0122638
0.01226376
0.01226373
0.01226371
0.01226428
0.01226429
0.01226432
0.01226433
0.01226435
0.01226432
0.01226425
0.0122642
0.01226417
0.0122643
0.01226434
0.01226437
0.01226442
0.01226448
0.01226444
0.01226433
0.01226421
0.01226418
0.01226435
0.01226442
0.01226448
0.0122646
0.01226482
0.012265
0.01226462
0.01226428
0.01226193
0.01226438
0.0122645
0.01226459
0.01226492
0.01226604
0.01227108
0.01225421
0.01226167
0.001327506
0.0122644
0.01226453
0.01226465
0.012265
0.01226589
0.01227031
0.00388731
0.001321562
0.01226443
0.01226451
0.01226459
0.0122647
0.012265
0.01226527
0.01226494
0.01226469
0.01226407
0.01226444
0.01226448
0.01226452
0.01226458
0.01226465
0.01226471
0.01226468
0.01226453
0.01226451
0.01226445
0.01226447
0.01226449
0.01226452
0.01226454
0.01226456
0.01226453
0.01226452
0.0122645
0.01226445
0.01226446
0.01226447
0.01226449
0.0122645
0.01226451
0.0122645
0.01226449
0.01226448
0.01226446
0.01226446
0.01226447
0.01226447
0.01226448
0.01226448
0.01226448
0.01226448
0.01226448
0.01226448
0.01226445
0.01226446
0.01226447
0.01226447
0.01226448
0.01226448
0.01226448
0.01226448
0.01226448
0.01226446
0.01226447
0.01226447
0.01226447
0.01226448
0.01226448
0.01226448
0.01226448
0.01226449
0.01226446
0.01226447
0.01226447
0.01226448
0.01226448
0.01226448
0.01226448
0.01226448
0.01226449
0.01226447
0.01226448
0.01226448
0.01226448
0.01226448
0.01226449
0.01226449
0.01226449
0.01226451
0.01226448
0.01226449
0.01226449
0.01226449
0.01226449
0.01226449
0.01226449
0.01226449
0.01226451
0.01226449
0.0122645
0.0122645
0.0122645
0.0122645
0.0122645
0.0122645
0.0122645
0.01226453
0.0122645
0.01226451
0.01226451
0.01226451
0.01226452
0.01226452
0.01226451
0.01226451
0.01226454
0.01226451
0.01226452
0.01226453
0.01226453
0.01226453
0.01226453
0.01226453
0.01226452
0.01226455
0.01226453
0.01226454
0.01226454
0.01226455
0.01226455
0.01226455
0.01226454
0.01226454
0.01226457
0.01226455
0.01226456
0.01226457
0.01226457
0.01226457
0.01226457
0.01226456
0.01226456
0.01226459
0.01226458
0.01226459
0.01226459
0.01226459
0.01226459
0.01226459
0.01226458
0.01226458
0.01226461
0.01226461
0.01226462
0.01226463
0.01226463
0.01226463
0.01226462
0.01226461
0.0122646
0.002075792
0.0009795698
0.0009946753
0.001000013
0.001000782
0.00100034
0.000999768
0.001000688
0.01226441
0.01226427
0.01226378
0.0122638
0.01226381
0.01226379
0.01226375
0.01226372
0.0122637
0.01226429
0.01226429
0.01226431
0.01226433
0.01226435
0.01226432
0.01226425
0.0122642
0.01226417
0.01226432
0.01226434
0.01226437
0.01226442
0.01226448
0.01226444
0.01226433
0.01226422
0.01226418
0.01226436
0.01226442
0.01226448
0.0122646
0.01226482
0.012265
0.01226462
0.01226428
0.01226195
0.01226442
0.0122645
0.01226459
0.01226492
0.01226604
0.01227108
0.01225429
0.01226176
0.001263097
0.01226444
0.01226454
0.01226466
0.01226501
0.01226587
0.01227033
0.003821579
0.00125328
0.01226445
0.01226451
0.01226459
0.01226471
0.012265
0.01226526
0.01226496
0.01226466
0.01226406
0.01226445
0.01226449
0.01226452
0.01226458
0.01226465
0.01226471
0.01226467
0.01226454
0.01226452
0.01226448
0.01226447
0.0122645
0.01226452
0.01226454
0.01226456
0.01226453
0.01226451
0.0122645
0.01226447
0.01226446
0.01226448
0.01226449
0.0122645
0.01226451
0.0122645
0.01226449
0.01226448
0.01226448
0.01226446
0.01226447
0.01226448
0.01226448
0.01226448
0.01226448
0.01226448
0.01226448
0.01226449
0.01226446
0.01226447
0.01226447
0.01226447
0.01226448
0.01226448
0.01226448
0.01226447
0.01226449
0.01226446
0.01226447
0.01226447
0.01226447
0.01226448
0.01226448
0.01226448
0.01226448
0.0122645
0.01226447
0.01226447
0.01226448
0.01226448
0.01226448
0.01226448
0.01226448
0.01226448
0.01226452
0.01226448
0.01226448
0.01226448
0.01226448
0.01226448
0.01226449
0.01226449
0.01226449
0.01226452
0.01226449
0.01226449
0.01226449
0.01226449
0.01226449
0.01226449
0.01226449
0.01226449
0.01226453
0.0122645
0.0122645
0.0122645
0.0122645
0.0122645
0.0122645
0.0122645
0.0122645
0.01226454
0.01226451
0.01226451
0.01226451
0.01226451
0.01226452
0.01226452
0.01226451
0.01226451
0.01226456
0.01226452
0.01226453
0.01226453
0.01226453
0.01226453
0.01226453
0.01226453
0.01226452
0.01226457
0.01226454
0.01226454
0.01226454
0.01226455
0.01226455
0.01226455
0.01226454
0.01226454
0.01226459
0.01226456
0.01226456
0.01226457
0.01226457
0.01226457
0.01226457
0.01226456
0.01226456
0.01226461
0.01226459
0.01226459
0.01226459
0.01226459
0.01226459
0.01226459
0.01226459
0.01226458
0.01226464
0.01226462
0.01226462
0.01226462
0.01226463
0.01226462
0.01226462
0.01226461
0.0122646
0.002061059
0.002106903
0.002175211
0.002188351
0.002193638
0.00218691
0.002180255
0.00218373
0.01226439
0.01226379
0.0122638
0.01226381
0.01226382
0.0122638
0.01226375
0.01226372
0.0122637
0.01226443
0.01226382
0.01226386
0.01226388
0.01226389
0.01226386
0.01226378
0.01226374
0.01226372
0.01226447
0.01226388
0.01226392
0.01226384
0.01226347
0.01226339
0.0122635
0.01226352
0.01226362
0.01226454
0.01226396
0.01226402
0.01226334
0.01226303
0.01226499
0.01226462
0.01226428
0.01226353
0.01226459
0.01226405
0.01226414
0.01226314
0.01226605
0.01227112
0.01225427
0.01226184
0.01226145
0.01226469
0.01226411
0.01226419
0.01226339
0.01226587
0.01227041
0.003693723
0.003545583
0.01226479
0.0122641
0.01226413
0.01226382
0.01226452
0.01226478
0.01226451
0.0122642
0.01226409
0.0122645
0.01226402
0.01226407
0.01226412
0.01226416
0.01226424
0.01226421
0.01226408
0.01226405
0.01226483
0.01226402
0.01226403
0.01226406
0.01226408
0.0122641
0.01226404
0.01226405
0.01226404
0.01226482
0.01226401
0.01226402
0.01226403
0.01226404
0.01226405
0.01226403
0.01226401
0.01226402
0.01226485
0.01226402
0.01226401
0.01226402
0.01226402
0.01226402
0.01226402
0.012264
0.012264
0.01226508
0.012264
0.01226401
0.01226401
0.01226401
0.01226401
0.01226401
0.012264
0.012264
0.01226451
0.01226399
0.01226402
0.01226401
0.01226401
0.01226401
0.01226401
0.012264
0.012264
0.01226453
0.01226402
0.01226402
0.01226402
0.01226402
0.01226402
0.01226402
0.01226401
0.012264
0.01226499
0.01226402
0.01226402
0.01226402
0.01226402
0.01226402
0.01226402
0.01226401
0.01226401
0.01226497
0.01226403
0.01226403
0.01226403
0.01226403
0.01226403
0.01226403
0.01226402
0.01226401
0.01226497
0.01226404
0.01226404
0.01226404
0.01226404
0.01226404
0.01226404
0.01226403
0.01226402
0.012265
0.01226405
0.01226406
0.01226405
0.01226405
0.01226405
0.01226405
0.01226404
0.01226403
0.01226502
0.01226407
0.01226407
0.01226407
0.01226407
0.01226407
0.01226407
0.01226405
0.01226405
0.01226505
0.01226409
0.01226409
0.01226409
0.01226409
0.01226409
0.01226408
0.01226407
0.01226406
0.01226508
0.01226411
0.01226411
0.01226411
0.01226411
0.01226411
0.0122641
0.01226408
0.01226408
0.01226513
0.01226413
0.01226414
0.01226414
0.01226414
0.01226413
0.01226411
0.01226408
0.0122641
0.0122652
0.01226417
0.01226417
0.01226417
0.01226417
0.01226416
0.01226416
0.01226412
0.01226414
0.004631558
0.00470786
0.004701398
0.00209372
0.002085438
0.004618131
0.00462649
0.004689221
0.01226477
0.000941213
0.000962203
0.0009695538
0.0009712924
0.0009709087
0.0009699173
0.0009691342
0.000969926
0.01226485
0.000961926
0.001001659
0.001011248
0.001010115
0.001007628
0.001006105
0.00100596
0.001005721
0.01226492
0.0009689248
0.001011246
0.001018262
0.0009997787
0.0009983369
0.0009866253
0.0009961164
0.0009888707
0.01226518
0.0009711008
0.001010518
0.001000299
0.000991152
0.01226131
0.01226255
0.01226216
0.0009623257
0.01226442
0.0009714528
0.001009822
0.001001182
0.01226065
0.01226656
0.01225491
0.01226125
0.01226054
0.01226535
0.0009710316
0.001010384
0.001002873
0.01226247
0.01227051
0.01226597
0.0009717869
0.00101303
0.001005863
0.001000893
0.0009765379
0.0009628941
0.0009594389
0.0009593408
0.01226437
0.0009744988
0.001018022
0.001029784
0.001029062
0.001024352
0.00102018
0.001018604
0.001017985
0.01226472
0.0009742887
0.0010212
0.001037294
0.001040735
0.001040576
0.001039682
0.001038937
0.001038412
0.01226584
0.0009743488
0.001022049
0.001039499
0.001044378
0.001045554
0.001045606
0.001045286
0.001044891
0.01226597
0.0009740157
0.001022452
0.001040311
0.001045661
0.00104728
0.001047654
0.001047512
0.001047196
0.01226645
0.0009752031
0.001023036
0.001040757
0.001046219
0.00104799
0.001048489
0.001048427
0.001048153
0.01226423
0.0009781491
0.001023635
0.001041035
0.001046487
0.001048306
0.001048854
0.001048826
0.001048572
0.01226419
0.0009783137
0.001023707
0.001041121
0.001046601
0.001048449
0.001049021
0.001049007
0.001048762
0.01226488
0.0009754619
0.00102324
0.001041045
0.001046623
0.001048507
0.001049096
0.001049091
0.00104885
0.0122664
0.0009734546
0.001022711
0.001040924
0.00104661
0.001048527
0.00104913
0.001049131
0.001048893
0.0122645
0.0009729749
0.001022516
0.001040865
0.001046598
0.001048533
0.001049145
0.00104915
0.001048914
0.01226645
0.0009733755
0.001022549
0.001040858
0.001046591
0.001048529
0.001049145
0.001049152
0.001048918
0.01226438
0.0009734876
0.001022574
0.001040851
0.001046574
0.00104851
0.001049125
0.001049136
0.001048908
0.01226662
0.0009738434
0.001022554
0.001040816
0.001046515
0.00104844
0.001049056
0.001049081
0.001048872
0.01226676
0.0009738283
0.00102253
0.001040701
0.001046332
0.001048225
0.001048855
0.001048929
0.001048772
0.01226758
0.0009736294
0.001022391
0.001040326
0.001045757
0.001047551
0.00104824
0.001048488
0.001048512
0.01226674
0.0009734402
0.00102167
0.001038857
0.001043585
0.001045065
0.00104597
0.001046888
0.001047658
0.004946311
0.001952984
0.004707123
0.01226497
0.01226343
0.00458048
0.001995425
0.002066515
0.002067618
0.002120242
0.01225667
0.01226005
0.004578592
0.002086714
0.002096854
0.002090326
0.002139898
0.01225232
0.01225767
0.004577604
0.00209941
0.002100475
0.002151923
0.002158509
0.0122521
0.01225604
0.004576618
0.002100795
0.00210074
0.002159682
0.00216022
0.0122514
0.01225539
0.004575672
0.002100752
0.002100602
0.002160223
0.00216006
0.01225234
0.01225541
0.004574854
0.002100575
0.002100496
0.002159919
0.00215969
0.0122545
0.01225659
0.004574216
0.00210047
0.002100418
0.002159517
0.002159281
0.0122564
0.01225776
0.004573758
0.002100354
0.002100214
0.00215913
0.002158963
0.01225791
0.01225873
0.001939844
0.001990149
0.01226474
0.01222195
0.0122649
0.01222167
0.002001836
0.002008282
0.0122648
0.01221862
0.01226494
0.01221852
0.002009602
0.00201025
0.01226489
0.0122132
0.0122651
0.01221299
0.00201053
0.002010546
0.01226502
0.01220566
0.01226531
0.01220542
0.002010766
0.002010756
0.01226519
0.01219566
0.01226553
0.01219539
0.004372481
0.004355221
0.01226655
0.01227608
0.01227225
0.002008107
0.01225485
0.01225813
0.002025281
0.0122592
0.01226047
0.002034916
0.0122606
0.01226117
0.002011026
0.002011065
0.01226537
0.01218406
0.01226569
0.01218368
0.002090422
0.002025759
0.01227054
0.01218651
0.01221855
0.001973258
0.001954589
0.01221535
0.01224772
0.001954735
0.001955194
0.01223698
0.01225095
0.001955253
0.001955222
0.01224103
0.01225152
0.002011344
0.002011416
0.01226551
0.01217336
0.01226579
0.01217299
0.002011654
0.002011715
0.01226562
0.01216462
0.01226589
0.01216435
0.002011901
0.002011934
0.01226572
0.0121573
0.01226597
0.0121571
0.002012082
0.002012099
0.0122658
0.0121515
0.01226604
0.01215133
0.002012214
0.002012225
0.01226588
0.01214661
0.0122661
0.01214648
0.002012318
0.002012326
0.01226594
0.01214247
0.01226615
0.01214236
0.002012408
0.002012413
0.012266
0.01213877
0.0122662
0.01213867
0.002012488
0.002012491
0.01226605
0.01213534
0.01226625
0.01213525
0.002012564
0.002012566
0.01226611
0.01213203
0.01226631
0.01213194
0.002012639
0.002012641
0.01226616
0.0121287
0.01226637
0.01212862
0.002012716
0.002012719
0.01226622
0.01212525
0.01226644
0.01212518
0.002012799
0.002012801
0.01226628
0.01212158
0.01226652
0.01212153
0.002012888
0.00201289
0.01226635
0.01211761
0.0122666
0.01211754
0.002012986
0.002012989
0.01226642
0.01211322
0.01226671
0.01211315
0.002013096
0.002013099
0.01226651
0.01210833
0.01226683
0.01210825
0.002013219
0.002013222
0.0122666
0.01210282
0.01226697
0.01210273
0.002013358
0.002013359
0.01226689
0.01209657
0.01226712
0.01209646
0.004706285
0.01226475
0.01226437
0.004718727
0.01226482
0.01226437
0.01227382
0.01227149
0.01227111
0.0122735
0.01227212
0.01226876
0.012273
0.01227041
0.01226871
0.01227291
0.004720194
0.01226473
0.01226436
0.004721761
0.01226477
0.01226436
0.01227382
0.01227147
0.01227108
0.01227381
0.01227185
0.01226871
0.01227287
0.01227033
0.01226869
0.01227285
0.004721871
0.01226473
0.01226435
0.004723174
0.01226478
0.01226435
0.01227365
0.01227148
0.01227107
0.01227363
0.01227182
0.01226868
0.01227287
0.0122703
0.01226867
0.01227288
0.004722556
0.01226473
0.01226435
0.00472271
0.01226478
0.01226435
0.01227362
0.01227147
0.01227107
0.01227362
0.01227179
0.01226868
0.01227286
0.01227029
0.01226867
0.01227287
0.004722061
0.01226473
0.01226435
0.004722818
0.01226478
0.01226435
0.01227361
0.01227146
0.01227107
0.01227362
0.0122718
0.01226867
0.01227287
0.0122703
0.01226868
0.01227287
0.004722207
0.01226473
0.01226436
0.004719308
0.01226478
0.01226436
0.01227363
0.01227149
0.01227109
0.01227365
0.01227182
0.01226867
0.01227288
0.01227031
0.01226868
0.01227287
0.004719527
0.01226473
0.01226436
0.00471546
0.01226478
0.01226436
0.01227382
0.01227151
0.01227105
0.01227384
0.0122718
0.0122687
0.01227285
0.01227032
0.01226871
0.01227287
0.004713456
0.01226477
0.01226437
0.004613173
0.01226478
0.01226437
0.01227356
0.01227178
0.01227093
0.01227383
0.01227184
0.0122687
0.01227295
0.01227049
0.0122687
0.0122731
0.004816774
0.01226494
0.0122634
0.001921597
0.004734971
0.01225589
0.01226205
0.001933503
0.001989436
0.00465242
0.01225496
0.01226172
0.002008954
0.002021156
0.004621085
0.01225382
0.01225999
0.002021289
0.00204705
0.002085594
0.01225393
0.01225692
0.004951414
0.004588188
0.002071276
0.002085116
0.002093071
0.01225424
0.01225657
0.004587677
0.004949414
0.002085257
0.002071416
0.004689976
0.01225643
0.01225899
0.002048532
0.002029882
0.004619188
0.01225963
0.01226067
0.002029793
0.002048434
0.01222195
0.01226489
0.0122218
0.001933583
0.001988803
0.01221841
0.01226495
0.01221829
0.002004377
0.002016887
0.01221314
0.01226503
0.01221298
0.002014574
0.002023771
0.0122048
0.01226445
0.01220617
0.002053188
0.004399295
0.002078983
0.01219688
0.01226449
0.01219582
0.004395446
0.002086019
0.004364655
0.002078969
0.01227612
0.01227194
0.002047149
0.004353564
0.004355188
0.0122597
0.004339587
0.004350576
0.01226127
0.004387772
0.002010391
0.01226119
0.001979922
0.002022895
0.01218284
0.01226623
0.01218329
0.004367387
0.002054609
0.002025821
0.01218524
0.01221773
0.004377264
0.002090733
0.002027238
0.01223709
0.01225463
0.001960199
0.001966137
0.01224194
0.01225244
0.001975399
0.00195562
0.01217193
0.01226491
0.01217468
0.002024474
0.002039274
0.0121659
0.01226436
0.01216341
0.002060481
0.004325945
0.002077088
0.01215883
0.01226681
0.01215511
0.004377616
0.002078828
0.002055751
0.01215018
0.01226574
0.01214815
0.002034695
0.004090294
0.002042053
0.0121446
0.01226664
0.01214651
0.002032233
0.002021041
0.01214092
0.01226489
0.0121445
0.002042097
0.004351906
0.002074976
0.01213746
0.0122643
0.01213673
0.004389224
0.00209442
0.004405082
0.0021001
0.01213395
0.0122642
0.01213326
0.004405612
0.002100489
0.004403134
0.002096528
0.01213414
0.01226765
0.01212925