/*--------------------------------*- C++ -*----------------------------------*\
  =========                 |
  \\      /  F ield         | OpenFOAM: The Open Source CFD Toolbox
   \\    /   O peration     | Website:  https://openfoam.org
    \\  /    A nd           | Version:  7
     \\/     M anipulation  |
\*---------------------------------------------------------------------------*/
FoamFile
{
    version     2.0;
    format      ascii;
    class       volScalarField;
    location    "0.01";
    object      k;
}
// * * * * * * * * * * * * * * * * * * * * * * * * * * * * * * * * * * * * * //

dimensions      [0 2 -2 0 0 0 0];

internalField   nonuniform List<scalar> 
109978
(
0.003755843
0.003754938
0.003754095
0.003753467
0.003752949
0.003752523
0.003754974
0.003754607
0.003754099
0.003753625
0.003753198
0.003752823
0.003754011
0.003753828
0.003753469
0.0037531
0.003752756
0.003752438
0.003753218
0.003753126
0.003752875
0.003752594
0.003752327
0.003752069
0.003752567
0.003752514
0.003752329
0.003752119
0.003751907
0.003751694
0.003752023
0.003751984
0.003751842
0.003751687
0.003751512
0.003751339
0.003751558
0.003751523
0.003751408
0.003751285
0.003751146
0.003751005
0.003751154
0.003751116
0.00375102
0.003750921
0.003750815
0.003750691
0.003750796
0.003750753
0.003750671
0.003750589
0.003750501
0.003750398
0.003750477
0.003750427
0.003750356
0.003750285
0.003750211
0.003750126
0.00375019
0.003750135
0.003750068
0.003750006
0.003749943
0.003749874
0.003749929
0.003749868
0.003749806
0.003749751
0.003749696
0.003749635
0.003749691
0.003749624
0.003749564
0.003749515
0.003749467
0.003749413
0.003749473
0.003749399
0.003749343
0.003749298
0.003749253
0.003749205
0.003749273
0.00374919
0.003749138
0.003749095
0.003749054
0.003749011
0.003749087
0.003748998
0.003748948
0.003748907
0.003748869
0.00374883
0.003748915
0.003748818
0.003748771
0.003748732
0.003748696
0.003748661
0.003748756
0.003748652
0.003748606
0.003748569
0.003748536
0.003748502
0.003748607
0.003748496
0.003748453
0.003748418
0.003748385
0.003748352
0.003748468
0.003748351
0.003748309
0.003748276
0.003748243
0.003748211
0.003748338
0.003748215
0.003748174
0.003748144
0.003748111
0.00374808
0.003748216
0.003748089
0.003748048
0.00374802
0.003747988
0.003747958
0.00371308
0.003747971
0.003747931
0.003747904
0.003747874
0.003747844
0.003724994
0.003714874
0.003714352
0.003714138
0.003714015
0.003713924
0.003715345
0.003713697
0.003713672
0.003713395
0.00371327
0.00371321
0.003713824
0.003713476
0.003713324
0.00371324
0.003713191
0.00371316
0.003713482
0.003713315
0.003713271
0.003713227
0.003713197
0.003713173
0.003713374
0.00371323
0.003713201
0.003713175
0.003713156
0.003713139
0.003713314
0.003713175
0.003713161
0.003713147
0.003713136
0.003713126
0.003713274
0.00371314
0.003713133
0.003713125
0.003713118
0.003713111
0.003713245
0.003713115
0.003713111
0.003713107
0.003713103
0.003713098
0.003713223
0.003713098
0.003713095
0.003713093
0.003713091
0.003713088
0.003713205
0.003713084
0.003713083
0.003713082
0.00371308
0.003713079
0.00371319
0.003713073
0.003713073
0.003713072
0.003713072
0.003713071
0.003713177
0.003713065
0.003713065
0.003713064
0.003713064
0.003713064
0.003713166
0.003713058
0.003713058
0.003713058
0.003713058
0.003713058
0.003713157
0.003713052
0.003713052
0.003713052
0.003713052
0.003713052
0.003713148
0.003713046
0.003713047
0.003713047
0.003713047
0.003713048
0.00371314
0.003713042
0.003713042
0.003713042
0.003713043
0.003713043
0.003713133
0.003713038
0.003713038
0.003713038
0.003713039
0.003713039
0.003713126
0.003713034
0.003713034
0.003713035
0.003713035
0.003713036
0.00371312
0.003713031
0.003713031
0.003713032
0.003713032
0.003713033
0.003713115
0.003713028
0.003713028
0.003713029
0.003713029
0.00371303
0.003713109
0.003713025
0.003713026
0.003713026
0.003713027
0.003713027
0.003713105
0.003713023
0.003713023
0.003713024
0.003713024
0.003713025
0.0037131
0.003713021
0.003713021
0.003713021
0.003713022
0.003713022
0.003713094
0.003713019
0.003713019
0.003713019
0.00371302
0.00371302
0.003727691
0.003715066
0.003714094
0.003713898
0.003713822
0.003713772
0.003715048
0.00371357
0.003713666
0.003713367
0.003713245
0.00371319
0.003713625
0.003713468
0.003713315
0.003713233
0.003713181
0.00371315
0.003713314
0.003713304
0.003713269
0.003713229
0.003713198
0.003713173
0.003713258
0.003713223
0.003713198
0.003713174
0.003713153
0.003713136
0.003713224
0.003713169
0.003713159
0.003713146
0.003713134
0.003713123
0.003713201
0.003713135
0.00371313
0.003713123
0.003713115
0.003713108
0.003713184
0.003713111
0.003713109
0.003713105
0.003713101
0.003713096
0.00371317
0.003713094
0.003713093
0.003713091
0.003713088
0.003713085
0.003713158
0.003713081
0.003713081
0.00371308
0.003713078
0.003713076
0.003713148
0.00371307
0.003713071
0.00371307
0.003713069
0.003713068
0.003713139
0.003713062
0.003713063
0.003713063
0.003713062
0.003713061
0.003713132
0.003713055
0.003713056
0.003713056
0.003713056
0.003713055
0.003713124
0.003713049
0.00371305
0.00371305
0.00371305
0.00371305
0.003713118
0.003713044
0.003713045
0.003713045
0.003713045
0.003713045
0.003713112
0.003713039
0.00371304
0.003713041
0.003713041
0.003713041
0.003713107
0.003713036
0.003713036
0.003713037
0.003713037
0.003713037
0.003713101
0.003713032
0.003713033
0.003713033
0.003713034
0.003713034
0.003713097
0.003713029
0.00371303
0.00371303
0.00371303
0.003713031
0.003713092
0.003713026
0.003713027
0.003713027
0.003713028
0.003713028
0.003713088
0.003713024
0.003713024
0.003713025
0.003713025
0.003713025
0.003713085
0.003713021
0.003713022
0.003713022
0.003713023
0.003713023
0.003713081
0.003713019
0.00371302
0.00371302
0.00371302
0.003713021
0.003713078
0.003713017
0.003713018
0.003713018
0.003713018
0.003713019
0.003727986
0.003714619
0.003713942
0.00371385
0.003713812
0.003713774
0.003715004
0.003713544
0.003713686
0.003713365
0.003713245
0.00371319
0.003713594
0.003713466
0.003713312
0.00371323
0.003713178
0.003713147
0.003713319
0.003713304
0.003713265
0.003713226
0.003713196
0.003713172
0.003713258
0.003713222
0.003713196
0.003713172
0.003713152
0.003713135
0.003713223
0.003713169
0.003713158
0.003713146
0.003713134
0.003713123
0.0037132
0.003713135
0.00371313
0.003713123
0.003713115
0.003713108
0.003713182
0.003713111
0.003713109
0.003713105
0.0037131
0.003713096
0.003713169
0.003713093
0.003713093
0.003713091
0.003713088
0.003713085
0.003713157
0.00371308
0.003713081
0.00371308
0.003713078
0.003713076
0.003713147
0.00371307
0.003713071
0.00371307
0.003713069
0.003713068
0.003713138
0.003713061
0.003713062
0.003713062
0.003713062
0.003713061
0.00371313
0.003713054
0.003713055
0.003713056
0.003713056
0.003713055
0.003713123
0.003713049
0.00371305
0.00371305
0.00371305
0.00371305
0.003713116
0.003713043
0.003713044
0.003713045
0.003713045
0.003713045
0.003713111
0.003713039
0.00371304
0.003713041
0.003713041
0.003713041
0.003713105
0.003713035
0.003713036
0.003713037
0.003713037
0.003713037
0.0037131
0.003713032
0.003713033
0.003713033
0.003713034
0.003713034
0.003713095
0.003713028
0.003713029
0.00371303
0.00371303
0.003713031
0.003713091
0.003713026
0.003713027
0.003713027
0.003713028
0.003713028
0.003713087
0.003713023
0.003713024
0.003713025
0.003713025
0.003713025
0.003713083
0.003713021
0.003713022
0.003713022
0.003713023
0.003713023
0.00371308
0.003713019
0.003713019
0.00371302
0.00371302
0.003713021
0.003713077
0.003713017
0.003713017
0.003713018
0.003713018
0.003713019
0.003727936
0.00371455
0.003713887
0.003713772
0.003713722
0.003713687
0.003714995
0.00371354
0.003713677
0.003713362
0.003713244
0.003713189
0.003713594
0.003713464
0.003713314
0.003713231
0.003713178
0.003713146
0.003713319
0.003713303
0.003713263
0.003713226
0.003713197
0.003713172
0.003713257
0.003713221
0.003713196
0.003713172
0.003713152
0.003713135
0.003713222
0.003713168
0.003713157
0.003713145
0.003713134
0.003713123
0.003713199
0.003713134
0.003713129
0.003713122
0.003713115
0.003713108
0.003713182
0.00371311
0.003713108
0.003713105
0.0037131
0.003713096
0.003713168
0.003713093
0.003713092
0.003713091
0.003713088
0.003713085
0.003713156
0.00371308
0.00371308
0.003713079
0.003713078
0.003713076
0.003713146
0.003713069
0.00371307
0.00371307
0.003713069
0.003713068
0.003713138
0.003713061
0.003713062
0.003713062
0.003713062
0.003713061
0.00371313
0.003713054
0.003713055
0.003713056
0.003713056
0.003713055
0.003713123
0.003713048
0.003713049
0.00371305
0.00371305
0.00371305
0.003713116
0.003713043
0.003713044
0.003713045
0.003713045
0.003713045
0.00371311
0.003713039
0.00371304
0.00371304
0.003713041
0.003713041
0.003713105
0.003713035
0.003713036
0.003713037
0.003713037
0.003713037
0.0037131
0.003713031
0.003713032
0.003713033
0.003713034
0.003713034
0.003713095
0.003713028
0.003713029
0.00371303
0.00371303
0.003713031
0.003713091
0.003713025
0.003713026
0.003713027
0.003713028
0.003713028
0.003713087
0.003713023
0.003713024
0.003713024
0.003713025
0.003713025
0.003713083
0.00371302
0.003713021
0.003713022
0.003713022
0.003713023
0.00371308
0.003713018
0.003713019
0.00371302
0.00371302
0.003713021
0.003713077
0.003713016
0.003713017
0.003713018
0.003713018
0.003713019
0.003727929
0.003714554
0.003713891
0.003713778
0.003713728
0.003713692
0.003714994
0.00371354
0.003713677
0.003713362
0.003713244
0.003713189
0.003713593
0.003713464
0.003713314
0.003713231
0.003713178
0.003713146
0.00371332
0.003713303
0.003713263
0.003713226
0.003713197
0.003713172
0.003713257
0.003713221
0.003713196
0.003713172
0.003713152
0.003713136
0.003713222
0.003713168
0.003713157
0.003713145
0.003713134
0.003713123
0.003713199
0.003713134
0.003713129
0.003713122
0.003713115
0.003713108
0.003713182
0.00371311
0.003713108
0.003713105
0.0037131
0.003713096
0.003713168
0.003713093
0.003713092
0.003713091
0.003713088
0.003713085
0.003713156
0.00371308
0.00371308
0.003713079
0.003713078
0.003713076
0.003713146
0.003713069
0.00371307
0.00371307
0.003713069
0.003713068
0.003713137
0.003713061
0.003713062
0.003713062
0.003713062
0.003713061
0.00371313
0.003713054
0.003713055
0.003713056
0.003713056
0.003713055
0.003713123
0.003713048
0.003713049
0.00371305
0.00371305
0.00371305
0.003713116
0.003713043
0.003713044
0.003713045
0.003713045
0.003713045
0.00371311
0.003713039
0.00371304
0.00371304
0.003713041
0.003713041
0.003713105
0.003713035
0.003713036
0.003713037
0.003713037
0.003713037
0.0037131
0.003713031
0.003713032
0.003713033
0.003713034
0.003713034
0.003713095
0.003713028
0.003713029
0.00371303
0.00371303
0.003713031
0.003713091
0.003713025
0.003713026
0.003713027
0.003713028
0.003713028
0.003713087
0.003713023
0.003713024
0.003713024
0.003713025
0.003713025
0.003713083
0.00371302
0.003713021
0.003713022
0.003713022
0.003713023
0.00371308
0.003713018
0.003713019
0.00371302
0.00371302
0.003713021
0.003713077
0.003713016
0.003713017
0.003713018
0.003713018
0.003713019
0.003728008
0.00371458
0.003713894
0.003713773
0.003713726
0.003713693
0.003715
0.003713544
0.003713686
0.003713364
0.003713245
0.003713189
0.003713587
0.003713466
0.003713312
0.00371323
0.003713179
0.003713147
0.003713319
0.003713304
0.003713265
0.003713226
0.003713196
0.003713172
0.003713257
0.003713222
0.003713196
0.003713172
0.003713152
0.003713136
0.003713222
0.003713169
0.003713158
0.003713146
0.003713134
0.003713123
0.003713199
0.003713135
0.00371313
0.003713123
0.003713115
0.003713108
0.003713182
0.003713111
0.003713109
0.003713105
0.0037131
0.003713096
0.003713168
0.003713093
0.003713093
0.003713091
0.003713088
0.003713085
0.003713157
0.00371308
0.00371308
0.00371308
0.003713078
0.003713076
0.003713146
0.00371307
0.00371307
0.00371307
0.003713069
0.003713068
0.003713138
0.003713061
0.003713062
0.003713062
0.003713062
0.003713061
0.00371313
0.003713054
0.003713055
0.003713056
0.003713056
0.003713055
0.003713123
0.003713048
0.003713049
0.00371305
0.00371305
0.00371305
0.003713116
0.003713043
0.003713044
0.003713045
0.003713045
0.003713045
0.00371311
0.003713039
0.00371304
0.003713041
0.003713041
0.003713041
0.003713105
0.003713035
0.003713036
0.003713037
0.003713037
0.003713037
0.0037131
0.003713032
0.003713032
0.003713033
0.003713034
0.003713034
0.003713095
0.003713028
0.003713029
0.00371303
0.00371303
0.003713031
0.003713091
0.003713026
0.003713026
0.003713027
0.003713028
0.003713028
0.003713087
0.003713023
0.003713024
0.003713024
0.003713025
0.003713025
0.003713083
0.003713021
0.003713021
0.003713022
0.003713022
0.003713023
0.00371308
0.003713019
0.003713019
0.00371302
0.00371302
0.003713021
0.003713077
0.003713017
0.003713017
0.003713018
0.003713018
0.003713019
0.003727886
0.003714625
0.003713904
0.003713777
0.003713727
0.003713691
0.003715024
0.00371357
0.003713665
0.003713367
0.003713245
0.00371319
0.003713592
0.003713468
0.003713315
0.003713233
0.003713182
0.00371315
0.003713319
0.003713304
0.003713268
0.003713229
0.003713198
0.003713173
0.003713256
0.003713222
0.003713197
0.003713174
0.003713153
0.003713136
0.003713221
0.003713169
0.003713159
0.003713146
0.003713134
0.003713123
0.003713199
0.003713134
0.00371313
0.003713123
0.003713115
0.003713108
0.003713182
0.003713111
0.003713109
0.003713105
0.003713101
0.003713096
0.003713168
0.003713093
0.003713093
0.003713091
0.003713088
0.003713085
0.003713156
0.00371308
0.003713081
0.00371308
0.003713078
0.003713076
0.003713146
0.00371307
0.003713071
0.00371307
0.003713069
0.003713068
0.003713138
0.003713062
0.003713062
0.003713062
0.003713062
0.003713061
0.00371313
0.003713055
0.003713056
0.003713056
0.003713056
0.003713055
0.003713123
0.003713049
0.00371305
0.00371305
0.00371305
0.00371305
0.003713116
0.003713044
0.003713045
0.003713045
0.003713045
0.003713045
0.00371311
0.003713039
0.00371304
0.003713041
0.003713041
0.003713041
0.003713105
0.003713035
0.003713036
0.003713037
0.003713037
0.003713037
0.0037131
0.003713032
0.003713033
0.003713033
0.003713034
0.003713034
0.003713095
0.003713029
0.003713029
0.00371303
0.00371303
0.003713031
0.003713091
0.003713026
0.003713027
0.003713027
0.003713028
0.003713028
0.003713087
0.003713023
0.003713024
0.003713024
0.003713025
0.003713025
0.003713083
0.003713021
0.003713022
0.003713022
0.003713022
0.003713023
0.00371308
0.003713019
0.003713019
0.00371302
0.00371302
0.003713021
0.003713077
0.003713017
0.003713017
0.003713018
0.003713018
0.003713019
0.003727336
0.003715206
0.0037145
0.003714259
0.003714125
0.003714036
0.003715167
0.003713696
0.003713671
0.003713395
0.00371327
0.003713209
0.003713571
0.003713475
0.003713324
0.00371324
0.003713191
0.003713159
0.003713344
0.003713314
0.003713271
0.003713227
0.003713197
0.003713173
0.003713275
0.003713229
0.0037132
0.003713175
0.003713156
0.003713139
0.003713236
0.003713175
0.003713161
0.003713147
0.003713136
0.003713126
0.00371321
0.003713139
0.003713132
0.003713124
0.003713118
0.003713111
0.003713191
0.003713115
0.003713111
0.003713107
0.003713103
0.003713098
0.003713176
0.003713097
0.003713095
0.003713093
0.003713091
0.003713088
0.003713164
0.003713083
0.003713083
0.003713081
0.00371308
0.003713079
0.003713153
0.003713073
0.003713073
0.003713072
0.003713072
0.003713071
0.003713143
0.003713064
0.003713064
0.003713064
0.003713064
0.003713064
0.003713135
0.003713057
0.003713057
0.003713058
0.003713058
0.003713058
0.003713128
0.003713051
0.003713051
0.003713052
0.003713052
0.003713052
0.003713121
0.003713046
0.003713046
0.003713047
0.003713047
0.003713047
0.003713115
0.003713041
0.003713042
0.003713042
0.003713043
0.003713043
0.003713109
0.003713037
0.003713038
0.003713038
0.003713039
0.003713039
0.003713104
0.003713034
0.003713034
0.003713035
0.003713035
0.003713036
0.003713099
0.003713031
0.003713031
0.003713032
0.003713032
0.003713033
0.003713095
0.003713028
0.003713028
0.003713029
0.003713029
0.00371303
0.00371309
0.003713025
0.003713025
0.003713026
0.003713027
0.003713027
0.003713087
0.003713023
0.003713023
0.003713024
0.003713024
0.003713025
0.003713083
0.00371302
0.003713021
0.003713021
0.003713022
0.003713022
0.003713094
0.003713018
0.003713019
0.003713019
0.00371302
0.00371302
0.003800744
0.003746949
0.003741072
0.003737701
0.003735132
0.003733106
0.00371572
0.003714446
0.003714066
0.003713827
0.003713741
0.003713696
0.003713671
0.003714971
0.003714175
0.003713697
0.003713525
0.003713447
0.003713398
0.003713365
0.003714378
0.003713692
0.00371352
0.003713424
0.003713374
0.003713339
0.003713315
0.003714143
0.003713541
0.003713422
0.003713365
0.003713334
0.003713309
0.003713291
0.003713991
0.003713417
0.003713351
0.003713316
0.003713298
0.003713281
0.00371327
0.003713888
0.00371334
0.003713301
0.003713279
0.003713268
0.003713257
0.00371325
0.003713811
0.003713288
0.003713265
0.003713249
0.003713243
0.003713236
0.003713231
0.00371375
0.003713251
0.003713236
0.003713225
0.003713221
0.003713218
0.003713215
0.0037137
0.003713223
0.003713214
0.003713205
0.003713203
0.003713202
0.003713201
0.003713658
0.003713201
0.003713195
0.003713188
0.003713188
0.003713187
0.003713188
0.003713621
0.003713182
0.00371318
0.003713174
0.003713175
0.003713174
0.003713176
0.003713589
0.003713167
0.003713167
0.003713162
0.003713163
0.003713163
0.003713165
0.00371356
0.003713154
0.003713155
0.003713151
0.003713152
0.003713153
0.003713155
0.003713533
0.003713143
0.003713145
0.003713142
0.003713143
0.003713144
0.003713146
0.003713509
0.003713133
0.003713136
0.003713133
0.003713134
0.003713136
0.003713138
0.003713486
0.003713125
0.003713128
0.003713126
0.003713127
0.003713128
0.003713131
0.003713466
0.003713117
0.003713121
0.003713119
0.00371312
0.003713121
0.003713124
0.003713447
0.00371311
0.003713114
0.003713113
0.003713114
0.003713115
0.003713118
0.003713429
0.003713104
0.003713108
0.003713107
0.003713108
0.003713109
0.003713112
0.003713413
0.003713098
0.003713103
0.003713102
0.003713103
0.003713104
0.003713107
0.003713398
0.003713092
0.003713098
0.003713097
0.003713098
0.003713099
0.003713102
0.003713384
0.003713087
0.003713093
0.003713092
0.003713093
0.003713094
0.003713097
0.003713371
0.003748075
0.003713089
0.003713088
0.003713089
0.00371309
0.003713093
0.003769272
0.003730215
0.003716946
0.003717731
0.003767071
0.00376798
0.003800801
0.003724842
0.00371719
0.003715454
0.003765199
0.003765761
0.003746934
0.003722642
0.003715323
0.003715031
0.003762826
0.003763966
0.003741066
0.003721475
0.003714792
0.003714621
0.003761033
0.003762501
0.003737692
0.003720913
0.003714534
0.003714373
0.003759611
0.003761297
0.003735129
0.003720356
0.003714372
0.003714246
0.00375842
0.003733096
0.003714208
0.003764476
0.003764287
0.003715663
0.003715049
0.003714624
0.00371487
0.003761954
0.003761448
0.003714901
0.003714116
0.003714078
0.00371394
0.003759668
0.003759292
0.003714315
0.003713667
0.0037139
0.00371367
0.003757859
0.003757582
0.003714085
0.003713502
0.003713804
0.003713519
0.003756395
0.003756184
0.003713938
0.003713404
0.003713735
0.003713427
0.003755176
0.003755011
0.003713838
0.003713342
0.003713682
0.003713365
0.003754137
0.003754002
0.003713764
0.003713299
0.003713638
0.003713319
0.003753232
0.00375312
0.003713705
0.003713266
0.003713601
0.003713285
0.003752433
0.003752338
0.003713657
0.003713241
0.003713569
0.003713257
0.003751719
0.003751638
0.003713617
0.003713219
0.00371354
0.003713234
0.003751075
0.003751006
0.003713582
0.003713202
0.003713514
0.003713214
0.00375049
0.00375043
0.003713551
0.003713187
0.003713491
0.003713198
0.003749955
0.003749904
0.003713523
0.003713173
0.00371347
0.003713183
0.003749464
0.003749419
0.003713498
0.003713162
0.003713451
0.00371317
0.003749011
0.00374897
0.003713474
0.003713152
0.003713433
0.003713159
0.003748592
0.003748555
0.003713453
0.003713142
0.003713417
0.003713149
0.003748203
0.003748169
0.003713434
0.003713134
0.003713402
0.00371314
0.003747841
0.00374781
0.003713416
0.003713126
0.003713387
0.003713132
0.003747503
0.003747476
0.003713399
0.00371312
0.003713374
0.003713124
0.003747188
0.003747163
0.003713384
0.003713113
0.003713362
0.003713118
0.003746893
0.00374687
0.00371337
0.003713107
0.003713351
0.003713111
0.003746618
0.003746597
0.003713357
0.003713102
0.00371334
0.003713106
0.003746362
0.003713198
0.003713371
0.003713097
0.003713304
0.003713073
0.003830145
0.003714811
0.003717862
0.00386245
0.003714744
0.003718244
0.003857213
0.003714544
0.003718574
0.003868597
0.003714607
0.003718617
0.003865294
0.003714524
0.003718622
0.003869066
0.003714591
0.003718626
0.00386863
0.00371452
0.003718618
0.003869457
0.00371459
0.003718617
0.003869476
0.003714521
0.003718614
0.003868445
0.003714587
0.003718617
0.00386932
0.003714523
0.003718623
0.003866097
0.003714601
0.003718622
0.003868607
0.003714547
0.003718617
0.003857504
0.003714616
0.003718578
0.00386215
0.00371466
0.003718248
0.003830177
0.003714864
0.00371786
0.003730432
0.003716873
0.003717733
0.003769272
0.003724825
0.003717189
0.003715454
0.00376707
0.00376798
0.003722605
0.003715322
0.00371503
0.003765199
0.003765761
0.003721433
0.003714792
0.00371462
0.003762826
0.003763966
0.003720863
0.003714534
0.003714372
0.003761033
0.003762501
0.003720305
0.003714372
0.003714247
0.003759611
0.003761297
0.003713444
0.003713803
0.003713519
0.003757845
0.003757582
0.003713291
0.003713682
0.003713365
0.003755169
0.003755011
0.003713248
0.003713638
0.003713319
0.003754133
0.003754002
0.003713218
0.003713601
0.003713285
0.003753229
0.00375312
0.003713195
0.003713568
0.003713257
0.003752431
0.003752338
0.003713176
0.00371354
0.003713234
0.003751717
0.003751638
0.003713136
0.00371347
0.003713183
0.003749956
0.003749903
0.003713125
0.003713451
0.00371317
0.003749465
0.003749419
0.003713116
0.003713433
0.003713159
0.003749012
0.00374897
0.003713108
0.003713416
0.003713149
0.003748593
0.003748555
0.003713095
0.003713387
0.003713132
0.003747843
0.00374781
0.003713088
0.003713374
0.003713124
0.003747505
0.003747475
0.003713079
0.00371335
0.003713111
0.003746897
0.003746871
0.003713073
0.003713339
0.003713106
0.003746621
0.003746597
0.003713097
0.003713304
0.0037131
0.003746364
0.003713192
0.003722903
0.003812111
0.003718121
0.003799833
0.003716848
0.003799239
0.00371667
0.003790221
0.003715238
0.00379184
0.003716161
0.003783567
0.003714674
0.003786482
0.003715863
0.003778938
0.003714369
0.003782423
0.003715653
0.003775212
0.003714216
0.003779191
0.003715486
0.003772221
0.003714125
0.00377653
0.003716927
0.003792558
0.003718803
0.003792312
0.003714968
0.003783618
0.003715562
0.003783454
0.003714415
0.003777559
0.003714687
0.003777466
0.00371416
0.0037731
0.003714318
0.003773015
0.003713996
0.003769554
0.003714102
0.003769477
0.003713877
0.003766621
0.003713954
0.003766549
0.003713786
0.003764124
0.003713845
0.00376406
0.003713714
0.003761957
0.00371376
0.0037619
0.003713653
0.003760046
0.003713691
0.003759995
0.003713603
0.003758343
0.003713633
0.003758297
0.003713559
0.003756809
0.003713584
0.003756768
0.003713521
0.003755416
0.003713542
0.003755381
0.003713487
0.003754145
0.003713505
0.003754113
0.003713457
0.003752978
0.003713473
0.003752949
0.003713431
0.003751902
0.003713444
0.003751876
0.003713407
0.003750906
0.003713418
0.003750883
0.003713385
0.003749982
0.003713395
0.003749961
0.003713365
0.003749122
0.003713374
0.003749103
0.003713347
0.00374832
0.003713355
0.003748303
0.003713331
0.003747572
0.003713338
0.003747556
0.003713315
0.003746872
0.003713322
0.003746858
0.003713301
0.003746216
0.003713307
0.003746205
0.003713288
0.003745602
0.003713293
0.00374559
0.003721243
0.003721457
0.003721046
0.003721303
0.003721078
0.003720884
0.003721222
0.003721075
0.003721229
0.003720988
0.003721252
0.003720921
0.003720927
0.003721139
0.003720986
0.003721113
0.003721904
0.003722641
0.003714208
0.003758419
0.003714968
0.003714623
0.00371487
0.003764452
0.003764286
0.003714043
0.003714077
0.00371394
0.003761935
0.003761448
0.0037136
0.0037139
0.00371367
0.003759654
0.003759292
0.003713346
0.003713735
0.003713427
0.003756387
0.003756185
0.00371316
0.003713514
0.003713214
0.003751074
0.003751006
0.003713146
0.003713491
0.003713197
0.00375049
0.00375043
0.003713101
0.003713401
0.00371314
0.003748204
0.003748169
0.003713083
0.003713362
0.003713117
0.00374719
0.003747163
0.003719439
0.003806317
0.003721044
0.003803865
0.003720273
0.003799666
0.003723652
0.00379886
0.003721833
0.003722849
0.003715093
0.003797004
0.003717146
0.003793574
0.003714409
0.003790529
0.003716546
0.00378652
0.003714214
0.003785799
0.003716211
0.003781332
0.003714166
0.003782082
0.003715967
0.003777083
0.003714124
0.003779066
0.003715761
0.003773775
0.003716066
0.003787826
0.00371571
0.003788108
0.003714831
0.003780487
0.003714685
0.003780631
0.00371437
0.003775329
0.003714307
0.003775443
0.003714131
0.003771342
0.00371409
0.003771434
0.003713975
0.003768109
0.003713945
0.003768185
0.003713862
0.003765398
0.003713837
0.00376546
0.003713775
0.003763069
0.003713753
0.00376312
0.003713704
0.003761032
0.003713685
0.003761075
0.003713646
0.003759226
0.003713629
0.003759261
0.003713596
0.003757607
0.003713581
0.003757637
0.003713553
0.003756144
0.00371354
0.003756169
0.003713515
0.003754812
0.003713503
0.003754832
0.003713482
0.003753593
0.003713471
0.00375361
0.003713453
0.00375247
0.003713443
0.003752486
0.003713426
0.003751433
0.003713417
0.003751447
0.003713402
0.003750473
0.003713394
0.003750485
0.003713381
0.00374958
0.003713374
0.003749591
0.003713361
0.003748749
0.003713355
0.003748757
0.003713343
0.003747973
0.003713337
0.00374798
0.003713327
0.003747248
0.003713321
0.003747253
0.003713312
0.00374657
0.003713307
0.003746574
0.003713298
0.003745933
0.003713293
0.003745938
0.003713285
0.003713461
0.00374534
0.003713231
0.003721024
0.003721311
0.003721073
0.003721128
0.003720967
0.003720986
0.003721163
0.003721068
0.003720966
0.003720971
0.003721296
0.003721286
0.003721147
0.003721014
0.003721349
0.003721305
0.003723049
0.003812109
0.003715098
0.003796615
0.003717299
0.003793564
0.00371667
0.003790229
0.003715238
0.003791839
0.003714161
0.003773104
0.003714319
0.003773019
0.003713877
0.003766624
0.003713955
0.00376655
0.003713862
0.003765396
0.003713837
0.00376546
0.003713786
0.003764127
0.003713843
0.00376406
0.003713597
0.003757607
0.003713581
0.003757635
0.003713487
0.003754145
0.003713505
0.003754113
0.003713482
0.003753592
0.003713472
0.00375361
0.003713457
0.003752978
0.003713472
0.003752949
0.003713453
0.00375247
0.003713443
0.003752485
0.003713431
0.003751902
0.003713443
0.003751875
0.003713426
0.003751433
0.003713418
0.003751447
0.003713407
0.003750906
0.003713417
0.003750883
0.003713402
0.003750473
0.003713395
0.003750485
0.003713365
0.003749123
0.003713374
0.003749103
0.003713361
0.003748749
0.003713355
0.003748757
0.003713347
0.003748321
0.003713354
0.003748303
0.003713343
0.003747973
0.003713338
0.00374798
0.003713315
0.003746876
0.003713322
0.003746859
0.003713312
0.003746571
0.003713307
0.003746576
0.003713301
0.003746218
0.003713306
0.003746207
0.003713298
0.003745937
0.003713294
0.003745941
0.003713288
0.003745606
0.003713293
0.003745594
0.003713285
0.003714862
0.003745346
0.00371323
0.003769758
0.003835124
0.003765029
0.003789682
0.003781967
0.003787564
0.003752507
0.003781102
0.003767553
0.003779881
0.003745991
0.003775976
0.003756674
0.003775227
0.00374149
0.003772366
0.003749849
0.003771916
0.003738381
0.003769584
0.003745207
0.003769351
0.003735976
0.003767332
0.003741547
0.003767267
0.00380084
0.003802275
0.003800944
0.003802295
0.003802708
0.003802603
0.00380089
0.003803239
0.00380279
0.003803653
0.003803221
0.0038022
0.003802249
0.003801103
0.003801168
0.003800982
0.003797614
0.003802072
0.003774631
0.003792319
0.003830596
0.003793034
0.00379927
0.003801736
0.003754191
0.003782967
0.003803197
0.003782286
0.003746124
0.003777648
0.003783009
0.003776586
0.003740746
0.003773921
0.003771766
0.003772702
0.003736944
0.003771081
0.003763805
0.003769757
0.003733943
0.00376879
0.003757711
0.003767401
0.003801009
0.00380228
0.003802655
0.003799766
0.003801803
0.00380214
0.003803753
0.003802683
0.003803267
0.00380174
0.00380305
0.003802826
0.003802663
0.003802347
0.003800023
0.003802496
0.003770557
0.003835102
0.00371946
0.003805767
0.003721219
0.003803861
0.003720357
0.003799663
0.003723648
0.003798863
0.003717957
0.003799845
0.003716845
0.003799681
0.003752499
0.003781101
0.00377988
0.003767549
0.003714411
0.003790233
0.003716667
0.003786518
0.003716138
0.003783564
0.003714671
0.003786479
0.003714217
0.00378557
0.00371635
0.003781325
0.003715865
0.003778947
0.003714371
0.003782424
0.00371563
0.003775206
0.003714213
0.003779191
0.003714124
0.003778911
0.003715883
0.003773776
0.003714132
0.003771344
0.003714092
0.003771437
0.003713909
0.003767169
0.00371408
0.003767307
0.003713934
0.00376662
0.00376641
0.003713876
0.003713774
0.003763067
0.003713753
0.00376312
0.003713714
0.003761959
0.003713758
0.0037619
0.003713704
0.003761031
0.003713686
0.003761074
0.003713654
0.003760048
0.003713689
0.003759998
0.003713646
0.003759228
0.00371363
0.003759264
0.003713602
0.003758348
0.003713632
0.003758296
0.003713715
0.003759341
0.003713785
0.00375942
0.003713575
0.0037531
0.0037136
0.003753146
0.003713577
0.00375288
0.003752781
0.003713562
0.003713444
0.003746917
0.003746938
0.003713448
0.004067505
0.003803423
0.003786395
0.00380251
0.003734145
0.003818864
0.003724021
0.003812629
0.003797415
0.0037972
0.003760002
0.003786074
0.003808124
0.003786325
0.003748789
0.003779372
0.003784431
0.003778944
0.00374249
0.003775043
0.00377158
0.00377431
0.003737963
0.00377189
0.003762972
0.003770992
0.00373465
0.003769403
0.003756852
0.003768392
0.00373209
0.003767363
0.003752206
0.003766271
0.003802206
0.003802524
0.003802488
0.003803378
0.003800028
0.003802647
0.003802913
0.00380275
0.003801194
0.003801032
0.00380108
0.00380302
0.003803512
0.003801542
0.003802196
0.003802435
0.00379652
0.003791659
0.003772229
0.00371423
0.003715463
0.003792622
0.003718794
0.003792315
0.003716917
0.003787825
0.003788109
0.003716063
0.003715707
0.003783645
0.003783455
0.003714968
0.003715555
0.003780488
0.003780631
0.003714829
0.003714686
0.003777578
0.00377747
0.003714416
0.003714682
0.003775331
0.003714312
0.003775447
0.00371437
0.003769564
0.0037141
0.003769481
0.003713994
0.003768112
0.003713948
0.003768189
0.003713975