/*--------------------------------*- C++ -*----------------------------------*\
  =========                 |
  \\      /  F ield         | OpenFOAM: The Open Source CFD Toolbox
   \\    /   O peration     | Website:  https://openfoam.org
    \\  /    A nd           | Version:  7
     \\/     M anipulation  |
\*---------------------------------------------------------------------------*/
FoamFile
{
    version     2.0;
    format      ascii;
    class       volScalarField;
    location    "0.01";
    object      nut;
}
// * * * * * * * * * * * * * * * * * * * * * * * * * * * * * * * * * * * * * //

dimensions      [0 2 -1 0 0 0 0];

internalField   nonuniform List<scalar> 
109978
(
0.0006579108
0.0006398915
0.0006382651
0.000638034
0.0006379974
0.0006381452
0.0006398977
0.0006078242
0.0006047232
0.0006043087
0.0006042874
0.0006045154
0.0006382568
0.0006046905
0.0006011903
0.0006006847
0.0006006652
0.0006009507
0.0006379982
0.0006042298
0.0006006318
0.0006000902
0.0006000715
0.000600382
0.0006378954
0.0006040871
0.0006004617
0.0005999069
0.0005998882
0.0006002085
0.000637829
0.00060401
0.0006003779
0.0005998207
0.0005998011
0.0006001267
0.0006377765
0.0006039565
0.0006003209
0.0005997626
0.0005997454
0.0006000748
0.0006377323
0.000603912
0.0006002772
0.0005997203
0.0005997049
0.0006000361
0.0006376937
0.0006038742
0.00060024
0.0005996841
0.0005996701
0.0006000033
0.0006376594
0.0006038407
0.0006002075
0.0005996523
0.0005996396
0.0005999745
0.0006376287
0.000603811
0.0006001781
0.0005996238
0.0005996116
0.0005999486
0.0006376008
0.0006037839
0.0006001516
0.0005995979
0.0005995865
0.0005999243
0.0006375753
0.0006037591
0.0006001272
0.0005995742
0.0005995634
0.0005999019
0.0006375521
0.0006037364
0.000600105
0.0005995523
0.000599542
0.000599881
0.0006375307
0.0006037154
0.0006000845
0.0005995322
0.0005995221
0.0005998617
0.000637511
0.000603696
0.0006000657
0.0005995137
0.000599504
0.0005998439
0.0006374928
0.0006036784
0.0006000487
0.000599497
0.0005994883
0.000599828
0.0006374762
0.0006036627
0.0006000341
0.0005994832
0.0005994749
0.0005998148
0.0006374615
0.0006036505
0.000600024
0.0005994748
0.0005994671
0.0005998071
0.0006374511
0.0006036472
0.0006000264
0.0005994808
0.0005994743
0.0005998144
0.0006374572
0.0006036783
0.0006000739
0.0005995367
0.000599533
0.0005998719
0.0006375306
0.0006038245
0.0006002633
0.0005997449
0.0005997417
0.0006000683
0.0001011772
0.0006041571
0.0006006629
0.0006001725
0.0006001579
0.0006004339
0.0001013394
0.0001011892
0.0001011815
0.0001011786
0.0001011769
0.0001011757
0.0001011999
0.0001011776
0.0001011773
0.0001011732
0.0001011713
0.0001011705
0.0001011774
0.0001011747
0.0001011724
0.0001011712
0.0001011705
0.00010117
0.0001011727
0.0001011724
0.0001011717
0.0001011711
0.0001011707
0.0001011703
0.0001011714
0.0001011713
0.0001011708
0.0001011704
0.0001011701
0.0001011699
0.0001011707
0.0001011705
0.0001011703
0.0001011701
0.0001011699
0.0001011698
0.0001011703
0.0001011701
0.00010117
0.0001011698
0.0001011697
0.0001011696
0.0001011701
0.0001011698
0.0001011697
0.0001011696
0.0001011696
0.0001011695
0.0001011699
0.0001011696
0.0001011696
0.0001011695
0.0001011695
0.0001011694
0.0001011698
0.0001011695
0.0001011694
0.0001011694
0.0001011694
0.0001011693
0.0001011697
0.0001011693
0.0001011693
0.0001011693
0.0001011693
0.0001011693
0.0001011696
0.0001011693
0.0001011693
0.0001011692
0.0001011692
0.0001011692
0.0001011695
0.0001011692
0.0001011692
0.0001011692
0.0001011692
0.0001011692
0.0001011695
0.0001011691
0.0001011691
0.0001011691
0.0001011691
0.0001011691
0.0001011694
0.0001011691
0.0001011691
0.0001011691
0.0001011691
0.0001011691
0.0001011694
0.0001011691
0.0001011691
0.0001011691
0.0001011691
0.0001011691
0.0001011693
0.000101169
0.000101169
0.000101169
0.000101169
0.000101169
0.0001011693
0.000101169
0.000101169
0.000101169
0.000101169
0.000101169
0.0001011693
0.000101169
0.000101169
0.000101169
0.000101169
0.000101169
0.0001011692
0.000101169
0.000101169
0.000101169
0.000101169
0.000101169
0.0001011692
0.000101169
0.000101169
0.000101169
0.000101169
0.000101169
0.0001011692
0.0001011689
0.0001011689
0.0001011689
0.0001011689
0.0001011689
0.0001011692
0.0001011689
0.0001011689
0.0001011689
0.0001011689
0.0001011689
0.0001011691
0.0001011689
0.0001011689
0.0001011689
0.0001011689
0.0001011689
0.0001013793
0.0001011922
0.0001011775
0.0001011748
0.0001011738
0.0001011732
0.0001011956
0.0001011757
0.0001011773
0.0001011728
0.000101171
0.0001011702
0.0001011747
0.0001011746
0.0001011723
0.0001011711
0.0001011703
0.0001011699
0.0001011704
0.0001011723
0.0001011717
0.0001011712
0.0001011707
0.0001011704
0.0001011699
0.0001011712
0.0001011708
0.0001011704
0.0001011701
0.0001011699
0.0001011696
0.0001011705
0.0001011703
0.0001011701
0.0001011699
0.0001011698
0.0001011695
0.00010117
0.0001011699
0.0001011698
0.0001011697
0.0001011696
0.0001011694
0.0001011698
0.0001011697
0.0001011696
0.0001011696
0.0001011695
0.0001011693
0.0001011696
0.0001011695
0.0001011695
0.0001011694
0.0001011694
0.0001011693
0.0001011694
0.0001011694
0.0001011694
0.0001011694
0.0001011693
0.0001011692
0.0001011693
0.0001011693
0.0001011693
0.0001011693
0.0001011693
0.0001011692
0.0001011692
0.0001011692
0.0001011692
0.0001011692
0.0001011692
0.0001011692
0.0001011692
0.0001011692
0.0001011692
0.0001011692
0.0001011691
0.0001011692
0.0001011691
0.0001011691
0.0001011691
0.0001011691
0.0001011691
0.0001011691
0.0001011691
0.0001011691
0.0001011691
0.0001011691
0.0001011691
0.0001011691
0.0001011691
0.0001011691
0.0001011691
0.000101169
0.000101169
0.0001011691
0.000101169
0.000101169
0.000101169
0.000101169
0.000101169
0.0001011691
0.000101169
0.000101169
0.000101169
0.000101169
0.000101169
0.0001011691
0.000101169
0.000101169
0.000101169
0.000101169
0.000101169
0.0001011691
0.000101169
0.000101169
0.000101169
0.000101169
0.000101169
0.0001011691
0.0001011689
0.0001011689
0.0001011689
0.0001011689
0.0001011689
0.000101169
0.0001011689
0.0001011689
0.0001011689
0.0001011689
0.0001011689
0.000101169
0.0001011689
0.0001011689
0.0001011689
0.0001011689
0.0001011689
0.000101169
0.0001011689
0.0001011689
0.0001011689
0.0001011689
0.0001011689
0.0001013835
0.0001011853
0.0001011752
0.000101174
0.0001011736
0.0001011732
0.0001011949
0.0001011753
0.0001011776
0.0001011727
0.000101171
0.0001011702
0.0001011742
0.0001011746
0.0001011723
0.000101171
0.0001011703
0.0001011699
0.0001011705
0.0001011723
0.0001011717
0.0001011711
0.0001011707
0.0001011703
0.0001011699
0.0001011712
0.0001011708
0.0001011704
0.0001011701
0.0001011699
0.0001011696
0.0001011705
0.0001011703
0.0001011701
0.0001011699
0.0001011698
0.0001011695
0.00010117
0.0001011699
0.0001011698
0.0001011697
0.0001011696
0.0001011694
0.0001011698
0.0001011697
0.0001011696
0.0001011696
0.0001011695
0.0001011693
0.0001011696
0.0001011695
0.0001011695
0.0001011694
0.0001011694
0.0001011693
0.0001011694
0.0001011694
0.0001011694
0.0001011693
0.0001011693
0.0001011692
0.0001011693
0.0001011693
0.0001011693
0.0001011693
0.0001011693
0.0001011692
0.0001011692
0.0001011692
0.0001011692
0.0001011692
0.0001011692
0.0001011692
0.0001011692
0.0001011692
0.0001011692
0.0001011692
0.0001011691
0.0001011691
0.0001011691
0.0001011691
0.0001011691
0.0001011691
0.0001011691
0.0001011691
0.0001011691
0.0001011691
0.0001011691
0.0001011691
0.0001011691
0.0001011691
0.0001011691
0.0001011691
0.0001011691
0.000101169
0.000101169
0.0001011691
0.000101169
0.000101169
0.000101169
0.000101169
0.000101169
0.0001011691
0.000101169
0.000101169
0.000101169
0.000101169
0.000101169
0.0001011691
0.000101169
0.000101169
0.000101169
0.000101169
0.000101169
0.0001011691
0.000101169
0.000101169
0.000101169
0.000101169
0.000101169
0.000101169
0.0001011689
0.0001011689
0.0001011689
0.0001011689
0.0001011689
0.000101169
0.0001011689
0.0001011689
0.0001011689
0.0001011689
0.0001011689
0.000101169
0.0001011689
0.0001011689
0.0001011689
0.0001011689
0.0001011689
0.000101169
0.0001011689
0.0001011689
0.0001011689
0.0001011689
0.0001011689
0.0001013827
0.0001011843
0.0001011744
0.0001011728
0.0001011723
0.0001011719
0.0001011948
0.0001011752
0.0001011775
0.0001011727
0.000101171
0.0001011702
0.0001011743
0.0001011746
0.0001011723
0.0001011711
0.0001011703
0.0001011699
0.0001011705
0.0001011723
0.0001011717
0.0001011711
0.0001011707
0.0001011704
0.0001011699
0.0001011712
0.0001011708
0.0001011704
0.0001011701
0.0001011699
0.0001011696
0.0001011705
0.0001011703
0.0001011701
0.0001011699
0.0001011698
0.0001011695
0.00010117
0.0001011699
0.0001011698
0.0001011697
0.0001011696
0.0001011694
0.0001011698
0.0001011697
0.0001011696
0.0001011696
0.0001011695
0.0001011693
0.0001011696
0.0001011695
0.0001011695
0.0001011694
0.0001011694
0.0001011693
0.0001011694
0.0001011694
0.0001011694
0.0001011693
0.0001011693
0.0001011692
0.0001011693
0.0001011693
0.0001011693
0.0001011693
0.0001011693
0.0001011692
0.0001011692
0.0001011692
0.0001011692
0.0001011692
0.0001011692
0.0001011692
0.0001011692
0.0001011692
0.0001011692
0.0001011692
0.0001011691
0.0001011691
0.0001011691
0.0001011691
0.0001011691
0.0001011691
0.0001011691
0.0001011691
0.0001011691
0.0001011691
0.0001011691
0.0001011691
0.0001011691
0.0001011691
0.0001011691
0.0001011691
0.0001011691
0.000101169
0.000101169
0.0001011691
0.000101169
0.000101169
0.000101169
0.000101169
0.000101169
0.0001011691
0.000101169
0.000101169
0.000101169
0.000101169
0.000101169
0.0001011691
0.000101169
0.000101169
0.000101169
0.000101169
0.000101169
0.0001011691
0.000101169
0.000101169
0.000101169
0.000101169
0.000101169
0.000101169
0.0001011689
0.0001011689
0.0001011689
0.0001011689
0.0001011689
0.000101169
0.0001011689
0.0001011689
0.0001011689
0.0001011689
0.0001011689
0.000101169
0.0001011689
0.0001011689
0.0001011689
0.0001011689
0.0001011689
0.000101169
0.0001011689
0.0001011689
0.0001011689
0.0001011689
0.0001011689
0.0001013827
0.0001011843
0.0001011744
0.0001011729
0.0001011724
0.000101172
0.0001011948
0.0001011752
0.0001011775
0.0001011727
0.000101171
0.0001011702
0.0001011743
0.0001011746
0.0001011723
0.0001011711
0.0001011703
0.0001011699
0.0001011705
0.0001011723
0.0001011717
0.0001011711
0.0001011707
0.0001011704
0.0001011699
0.0001011712
0.0001011708
0.0001011704
0.0001011701
0.0001011699
0.0001011696
0.0001011705
0.0001011703
0.0001011701
0.0001011699
0.0001011698
0.0001011695
0.00010117
0.0001011699
0.0001011698
0.0001011697
0.0001011696
0.0001011694
0.0001011698
0.0001011697
0.0001011696
0.0001011696
0.0001011695
0.0001011693
0.0001011696
0.0001011695
0.0001011695
0.0001011694
0.0001011694
0.0001011693
0.0001011694
0.0001011694
0.0001011694
0.0001011694
0.0001011693
0.0001011692
0.0001011693
0.0001011693
0.0001011693
0.0001011693
0.0001011693
0.0001011692
0.0001011692
0.0001011692
0.0001011692
0.0001011692
0.0001011692
0.0001011692
0.0001011692
0.0001011692
0.0001011692
0.0001011692
0.0001011691
0.0001011691
0.0001011691
0.0001011691
0.0001011691
0.0001011691
0.0001011691
0.0001011691
0.0001011691
0.0001011691
0.0001011691
0.0001011691
0.0001011691
0.0001011691
0.0001011691
0.0001011691
0.0001011691
0.000101169
0.000101169
0.0001011691
0.000101169
0.000101169
0.000101169
0.000101169
0.000101169
0.0001011691
0.000101169
0.000101169
0.000101169
0.000101169
0.000101169
0.0001011691
0.000101169
0.000101169
0.000101169
0.000101169
0.000101169
0.0001011691
0.000101169
0.000101169
0.000101169
0.000101169
0.000101169
0.000101169
0.0001011689
0.0001011689
0.0001011689
0.0001011689
0.0001011689
0.000101169
0.0001011689
0.0001011689
0.0001011689
0.0001011689
0.0001011689
0.000101169
0.0001011689
0.0001011689
0.0001011689
0.0001011689
0.0001011689
0.000101169
0.0001011689
0.0001011689
0.0001011689
0.0001011689
0.0001011689
0.0001013838
0.0001011847
0.0001011745
0.0001011729
0.0001011723
0.000101172
0.0001011949
0.0001011753
0.0001011776
0.0001011727
0.000101171
0.0001011702
0.0001011741
0.0001011746
0.0001011723
0.000101171
0.0001011703
0.0001011699
0.0001011705
0.0001011723
0.0001011717
0.0001011711
0.0001011707
0.0001011703
0.0001011699
0.0001011712
0.0001011708
0.0001011704
0.0001011701
0.0001011699
0.0001011696
0.0001011705
0.0001011703
0.0001011701
0.0001011699
0.0001011698
0.0001011695
0.00010117
0.0001011699
0.0001011698
0.0001011697
0.0001011696
0.0001011694
0.0001011698
0.0001011697
0.0001011696
0.0001011696
0.0001011695
0.0001011693
0.0001011696
0.0001011695
0.0001011695
0.0001011694
0.0001011694
0.0001011693
0.0001011694
0.0001011694
0.0001011694
0.0001011694
0.0001011693
0.0001011692
0.0001011693
0.0001011693
0.0001011693
0.0001011693
0.0001011693
0.0001011692
0.0001011692
0.0001011692
0.0001011692
0.0001011692
0.0001011692
0.0001011692
0.0001011692
0.0001011692
0.0001011692
0.0001011692
0.0001011691
0.0001011691
0.0001011691
0.0001011691
0.0001011691
0.0001011691
0.0001011691
0.0001011691
0.0001011691
0.0001011691
0.0001011691
0.0001011691
0.0001011691
0.0001011691
0.0001011691
0.0001011691
0.0001011691
0.000101169
0.000101169
0.0001011691
0.000101169
0.000101169
0.000101169
0.000101169
0.000101169
0.0001011691
0.000101169
0.000101169
0.000101169
0.000101169
0.000101169
0.0001011691
0.000101169
0.000101169
0.000101169
0.000101169
0.000101169
0.0001011691
0.000101169
0.000101169
0.000101169
0.000101169
0.000101169
0.000101169
0.0001011689
0.0001011689
0.0001011689
0.0001011689
0.0001011689
0.000101169
0.0001011689
0.0001011689
0.0001011689
0.0001011689
0.0001011689
0.000101169
0.0001011689
0.0001011689
0.0001011689
0.0001011689
0.0001011689
0.000101169
0.0001011689
0.0001011689
0.0001011689
0.0001011689
0.0001011689
0.0001013821
0.0001011854
0.0001011746
0.0001011729
0.0001011723
0.0001011719
0.0001011953
0.0001011757
0.0001011773
0.0001011728
0.000101171
0.0001011702
0.0001011742
0.0001011746
0.0001011723
0.0001011711
0.0001011703
0.0001011699
0.0001011705
0.0001011723
0.0001011717
0.0001011712
0.0001011707
0.0001011704
0.0001011699
0.0001011712
0.0001011708
0.0001011704
0.0001011701
0.0001011699
0.0001011696
0.0001011705
0.0001011703
0.0001011701
0.0001011699
0.0001011698
0.0001011695
0.00010117
0.0001011699
0.0001011698
0.0001011697
0.0001011696
0.0001011694
0.0001011698
0.0001011697
0.0001011696
0.0001011696
0.0001011695
0.0001011693
0.0001011696
0.0001011695
0.0001011695
0.0001011694
0.0001011694
0.0001011693
0.0001011694
0.0001011694
0.0001011694
0.0001011694
0.0001011693
0.0001011692
0.0001011693
0.0001011693
0.0001011693
0.0001011693
0.0001011693
0.0001011692
0.0001011692
0.0001011692
0.0001011692
0.0001011692
0.0001011692
0.0001011692
0.0001011692
0.0001011692
0.0001011692
0.0001011692
0.0001011691
0.0001011691
0.0001011691
0.0001011691
0.0001011691
0.0001011691
0.0001011691
0.0001011691
0.0001011691
0.0001011691
0.0001011691
0.0001011691
0.0001011691
0.0001011691
0.0001011691
0.0001011691
0.0001011691
0.000101169
0.000101169
0.0001011691
0.000101169
0.000101169
0.000101169
0.000101169
0.000101169
0.0001011691
0.000101169
0.000101169
0.000101169
0.000101169
0.000101169
0.0001011691
0.000101169
0.000101169
0.000101169
0.000101169
0.000101169
0.0001011691
0.000101169
0.000101169
0.000101169
0.000101169
0.000101169
0.000101169
0.0001011689
0.0001011689
0.0001011689
0.0001011689
0.0001011689
0.000101169
0.0001011689
0.0001011689
0.0001011689
0.0001011689
0.0001011689
0.000101169
0.0001011689
0.0001011689
0.0001011689
0.0001011689
0.0001011689
0.000101169
0.0001011689
0.0001011689
0.0001011689
0.0001011689
0.0001011689
0.0001013744
0.0001011944
0.0001011838
0.0001011804
0.0001011785
0.0001011773
0.0001011974
0.0001011776
0.0001011773
0.0001011732
0.0001011713
0.0001011705
0.0001011738
0.0001011747
0.0001011724
0.0001011712
0.0001011705
0.00010117
0.0001011708
0.0001011724
0.0001011717
0.0001011711
0.0001011707
0.0001011703
0.0001011701
0.0001011713
0.0001011708
0.0001011704
0.0001011701
0.0001011699
0.0001011697
0.0001011705
0.0001011703
0.0001011701
0.0001011699
0.0001011698
0.0001011696
0.0001011701
0.00010117
0.0001011698
0.0001011697
0.0001011696
0.0001011695
0.0001011698
0.0001011697
0.0001011696
0.0001011696
0.0001011695
0.0001011694
0.0001011696
0.0001011696
0.0001011695
0.0001011695
0.0001011694
0.0001011693
0.0001011695
0.0001011694
0.0001011694
0.0001011694
0.0001011693
0.0001011693
0.0001011693
0.0001011693
0.0001011693
0.0001011693
0.0001011693
0.0001011692
0.0001011693
0.0001011692
0.0001011692
0.0001011692
0.0001011692
0.0001011692
0.0001011692
0.0001011692
0.0001011692
0.0001011692
0.0001011692
0.0001011692
0.0001011691
0.0001011691
0.0001011691
0.0001011691
0.0001011691
0.0001011692
0.0001011691
0.0001011691
0.0001011691
0.0001011691
0.0001011691
0.0001011691
0.0001011691
0.0001011691
0.0001011691
0.0001011691
0.0001011691
0.0001011691
0.000101169
0.000101169
0.000101169
0.000101169
0.000101169
0.0001011691
0.000101169
0.000101169
0.000101169
0.000101169
0.000101169
0.0001011691
0.000101169
0.000101169
0.000101169
0.000101169
0.000101169
0.0001011691
0.000101169
0.000101169
0.000101169
0.000101169
0.000101169
0.0001011691
0.000101169
0.000101169
0.000101169
0.000101169
0.000101169
0.000101169
0.0001011689
0.0001011689
0.0001011689
0.0001011689
0.0001011689
0.000101169
0.0001011689
0.0001011689
0.0001011689
0.0001011689
0.0001011689
0.0001011691
0.0001011689
0.0001011689
0.0001011689
0.0001011689
0.0001011689
0.0001024889
0.0001016677
0.0001015804
0.0001015306
0.0001014928
0.000101463
0.000101195
0.000101197
0.0001011917
0.0001011881
0.0001011867
0.0001011859
0.0001011855
0.0001011869
0.0001011922
0.0001011853
0.0001011827
0.0001011815
0.0001011808
0.0001011802
0.0001011791
0.0001011851
0.0001011828
0.0001011813
0.0001011805
0.0001011799
0.0001011795
0.0001011764
0.000101183
0.0001011814
0.0001011805
0.00010118
0.0001011796
0.0001011793
0.0001011748
0.0001011813
0.0001011804
0.0001011799
0.0001011796
0.0001011793
0.000101179
0.0001011738
0.0001011802
0.0001011797
0.0001011794
0.0001011792
0.000101179
0.0001011788
0.0001011731
0.0001011796
0.0001011792
0.000101179
0.0001011789
0.0001011788
0.0001011786
0.0001011726
0.0001011791
0.0001011789
0.0001011787
0.0001011786
0.0001011786
0.0001011785
0.0001011723
0.0001011788
0.0001011786
0.0001011785
0.0001011784
0.0001011784
0.0001011783
0.000101172
0.0001011785
0.0001011784
0.0001011783
0.0001011783
0.0001011782
0.0001011782
0.0001011717
0.0001011783
0.0001011782
0.0001011781
0.0001011781
0.0001011781
0.000101178
0.0001011715
0.0001011781
0.000101178
0.000101178
0.000101178
0.000101178
0.0001011779
0.0001011713
0.000101178
0.0001011779
0.0001011779
0.0001011779
0.0001011779
0.0001011778
0.0001011712
0.0001011779
0.0001011778
0.0001011778
0.0001011778
0.0001011778
0.0001011778
0.000101171
0.0001011778
0.0001011777
0.0001011777
0.0001011777
0.0001011777
0.0001011777
0.0001011709
0.0001011777
0.0001011776
0.0001011776
0.0001011776
0.0001011776
0.0001011776
0.0001011708
0.0001011776
0.0001011776
0.0001011775
0.0001011776
0.0001011776
0.0001011775
0.0001011707
0.0001011776
0.0001011775
0.0001011775
0.0001011775
0.0001011775
0.0001011775
0.0001011706
0.0001011775
0.0001011774
0.0001011774
0.0001011774
0.0001011774
0.0001011774
0.0001011705
0.0001011775
0.0001011774
0.0001011774
0.0001011774
0.0001011774
0.0001011774
0.0001011704
0.0001011774
0.0001011773
0.0001011773
0.0001011774
0.0001011774
0.0001011774
0.0001011703
0.0001011774
0.0001011773
0.0001011773
0.0001011773
0.0001011773
0.0001011773
0.0001011702
0.000638007
0.0001011772
0.0001011773
0.0001011773
0.0001011773
0.0001011773
0.0003051089
0.0001014031
0.0001012108
0.0001012365
0.0003069617
0.0002954763
0.0001024899
0.0001013273
0.0001012277
0.0001012014
0.0002950512
0.0002948339
0.0001016677
0.0001012967
0.0001011996
0.0001011954
0.0002946789
0.0002947159
0.0001015804
0.0001012799
0.0001011918
0.0001011894
0.0002945727
0.0002946416
0.0001015306
0.0001012722
0.0001011881
0.0001011858
0.000294504
0.0002946016
0.0001014928
0.0001012639
0.0001011858
0.000101184
0.0002944778
0.0001014629
0.0001011834
0.0003068264
0.0002952964
0.0001011948
0.0001011983
0.0001011801
0.0001011955
0.0002948896
0.0002946244
0.0001011867
0.0001011848
0.0001011736
0.0001011819
0.0002945229
0.0002944887
0.0001011789
0.000101178
0.000101172
0.0001011779
0.0002944151
0.0002943994
0.0001011762
0.0001011756
0.0001011714
0.0001011757
0.0002943398
0.0002943296
0.0001011746
0.0001011741
0.000101171
0.0001011744
0.0002942791
0.0002942716
0.0001011737
0.0001011732
0.0001011708
0.0001011735
0.0002942278
0.0002942218
0.000101173
0.0001011726
0.0001011706
0.0001011728
0.0002941832
0.0002941783
0.0001011725
0.0001011721
0.0001011705
0.0001011723
0.0002941439
0.0002941398
0.0001011721
0.0001011717
0.0001011704
0.0001011719
0.0002941088
0.0002941054
0.0001011719
0.0001011714
0.0001011703
0.0001011716
0.0002940771
0.0002940742
0.0001011716
0.0001011712
0.0001011702
0.0001011714
0.0002940484
0.0002940459
0.0001011714
0.000101171
0.0001011701
0.0001011711
0.0002940221
0.00029402
0.0001011712
0.0001011708
0.0001011701
0.000101171
0.0002939979
0.0002939961
0.0001011711
0.0001011707
0.00010117
0.0001011708
0.0002939756
0.000293974
0.0001011709
0.0001011705
0.00010117
0.0001011706
0.000293955
0.0002939535
0.0001011708
0.0001011704
0.0001011699
0.0001011705
0.0002939358
0.0002939345
0.0001011707
0.0001011703
0.0001011699
0.0001011704
0.000293918
0.0002939169
0.0001011706
0.0001011702
0.0001011698
0.0001011703
0.0002939014
0.0002939006
0.0001011705
0.0001011701
0.0001011698
0.0001011702
0.0002938863
0.0002938862
0.0001011704
0.0001011701
0.0001011698
0.0001011701
0.0002938731
0.0002938773
0.0001011703
0.00010117
0.0001011697
0.00010117
0.0002938681
0.0002939012
0.0001011702
0.0001011699
0.0001011697
0.00010117
0.0002939158
0.0001012047
0.0001011702
0.0001011699
0.0001011696
0.0001011699
0.0001028949
0.0001011796
0.0001012382
0.0001034313
0.0001011796
0.0001012442
0.0001033469
0.0001011773
0.0001012491
0.000103524
0.0001011774
0.0001012498
0.0001034704
0.000101177
0.0001012498
0.0001035277
0.0001011771
0.0001012499
0.0001035223
0.000101177
0.0001012498
0.000103535
0.0001011771
0.0001012497
0.0001035358
0.000101177
0.0001012497
0.0001035177
0.0001011771
0.0001012498
0.0001035354
0.000101177
0.0001012498
0.000103482
0.0001011773
0.0001012498
0.0001035259
0.0001011774
0.0001012498
0.0001033478
0.0001011775
0.0001012492
0.0001034285
0.0001011792
0.0001012442
0.000102893
0.0001011797
0.0001012382
0.0001014087
0.0001012106
0.0001012365
0.0003051097
0.0001013291
0.0001012277
0.0001012014
0.0003069625
0.000295477
0.000101298
0.0001011996
0.0001011954
0.0002950509
0.0002948314
0.0001012809
0.0001011918
0.0001011894
0.0002946773
0.0002947187
0.0001012729
0.0001011881
0.0001011858
0.0002945736
0.0002946387
0.0001012645
0.0001011858
0.000101184
0.0002945027
0.0002946013
0.0001011755
0.0001011714
0.0001011757
0.0002944114
0.0002943994
0.0001011731
0.0001011708
0.0001011735
0.0002942768
0.0002942705
0.0001011725
0.0001011706
0.0001011728
0.0002942266
0.0002942214
0.000101172
0.0001011705
0.0001011723
0.0002941824
0.0002941774
0.0001011716
0.0001011704
0.0001011719
0.0002941427
0.0002941381
0.0001011714
0.0001011703
0.0001011716
0.0002941072
0.0002941045
0.0001011707
0.0001011701
0.000101171
0.0002940214
0.0002940191
0.0001011706
0.00010117
0.0001011708
0.0002939971
0.0002939953
0.0001011705
0.00010117
0.0001011706
0.0002939748
0.0002939732
0.0001011703
0.0001011699
0.0001011705
0.0002939542
0.0002939526
0.0001011702
0.0001011698
0.0001011703
0.0002939171
0.000293916
0.0001011701
0.0001011698
0.0001011702
0.0002939006
0.0002938994
0.0001011699
0.0001011697
0.00010117
0.0002938734
0.0002938765
0.0001011699
0.0001011697
0.00010117
0.0002938691
0.0002939008
0.0001011699
0.0001011696
0.0001011699
0.0002939161
0.0001012047
0.0001013118
0.0001470617
0.0001012349
0.0001444075
0.0001012187
0.0001441643
0.0001012132
0.000143876
0.0001011936
0.0001439047
0.0001012056
0.0001437108
0.0001011849
0.0001437752
0.0001012014
0.0001436005
0.0001011803
0.0001436783
0.0001011988
0.0001435126
0.0001011777
0.000143602
0.0001011967
0.0001434432
0.0001011762
0.0001435431
0.0001012355
0.0001442356
0.0001012666
0.0001440064
0.0001012043
0.0001437207
0.0001012147
0.0001437125
0.0001011947
0.0001435689
0.0001011997
0.0001435675
0.00010119
0.0001434622
0.000101193
0.000143461
0.0001011868
0.0001433779
0.0001011889
0.0001433767
0.0001011845
0.0001433081
0.000101186
0.000143307
0.0001011828
0.0001432487
0.0001011839
0.0001432476
0.0001011813
0.0001431971
0.0001011823
0.0001431961
0.0001011802
0.0001431515
0.0001011809
0.0001431506
0.0001011792
0.0001431109
0.0001011798
0.0001431101
0.0001011783
0.0001430743
0.0001011789
0.0001430736
0.0001011776
0.0001430411
0.0001011781
0.0001430404
0.0001011769
0.0001430107
0.0001011773
0.0001430102
0.0001011764
0.0001429829
0.0001011767
0.0001429823
0.0001011759
0.0001429571
0.0001011762
0.0001429567
0.0001011754
0.0001429333
0.0001011757
0.0001429329
0.000101175
0.0001429113
0.0001011753
0.0001429109
0.0001011746
0.0001428907
0.0001011749
0.0001428904
0.0001011743
0.0001428715
0.0001011745
0.0001428712
0.000101174
0.0001428536
0.0001011742
0.0001428534
0.0001011737
0.0001428369
0.0001011739
0.0001428367
0.0001011735
0.0001428215
0.0001011736
0.0001428217
0.0001011733
0.00014281
0.0001011734
0.0001428187
0.000101283
0.0001012863
0.0001012799
0.0001012841
0.0001012811
0.0001012775
0.0001012824
0.000101281
0.0001012833
0.0001012791
0.0001012835
0.0001012782
0.0001012786
0.0001012821
0.000101279
0.0001012813
0.0001012972
0.0001013067
0.0001011834
0.0002944761
0.0001011982
0.0001011801
0.0001011955
0.0003068258
0.000295298
0.0001011846
0.0001011736
0.0001011819
0.0002948888
0.000294624
0.0001011779
0.000101172
0.0001011779
0.0002945209
0.0002944871
0.000101174
0.000101171
0.0001011744
0.0002943398
0.0002943273
0.0001011711
0.0001011702
0.0001011714
0.000294076
0.0002940725
0.0001011709
0.0001011701
0.0001011711
0.0002940466
0.0002940454
0.0001011702
0.0001011699
0.0001011704
0.0002939347
0.0002939333
0.00010117
0.0001011698
0.0001011701
0.0002938849
0.0002938867
0.0001012568
0.0001447109
0.0001012831
0.0001497185
0.0001012804
0.0001445548
0.000101335
0.0001495828
0.0001012967
0.0001013092
0.0001011886
0.0001440359
0.0001012232
0.000144008
0.0001011783
0.0001438716
0.0001012136
0.0001437826
0.0001011751
0.000143759
0.0001012084
0.0001436579
0.0001011747
0.0001436708
0.0001012047
0.0001435572
0.0001011744
0.0001436003
0.0001012016
0.0001434793
0.000101223
0.0001438259
0.000101217
0.0001438797
0.0001012023
0.0001436403
0.0001011998
0.0001436439
0.000101194
0.0001435168
0.0001011929
0.0001435188
0.0001011895
0.0001434215
0.0001011888
0.000143423
0.0001011865
0.0001433445
0.000101186
0.0001433457
0.0001011843
0.0001432798
0.0001011839
0.0001432808
0.0001011826
0.0001432242
0.0001011823
0.000143225
0.0001011812
0.0001431756
0.0001011809
0.0001431763
0.00010118
0.0001431325
0.0001011798
0.000143133
0.0001011791
0.0001430938
0.0001011789
0.0001430942
0.0001011782
0.0001430589
0.000101178
0.0001430592
0.0001011775
0.000143027
0.0001011773
0.0001430273
0.0001011769
0.0001429979
0.0001011767
0.0001429981
0.0001011763
0.000142971
0.0001011762
0.0001429712
0.0001011758
0.0001429462
0.0001011757
0.0001429464
0.0001011754
0.0001429232
0.0001011752
0.0001429234
0.000101175
0.0001429019
0.0001011749
0.000142902
0.0001011746
0.000142882
0.0001011745
0.0001428821
0.0001011743
0.0001428634
0.0001011742
0.0001428634
0.000101174
0.0001428461
0.0001011739
0.0001428461
0.0001011737
0.0001428301
0.0001011736
0.0001428299
0.0001011735
0.0001428171
0.0001011734
0.0001428155
0.0001011732
0.0001012452
0.0001428193
0.0001011731
0.0001012795
0.0001012842
0.0001012807
0.0001012821
0.0001012787
0.0001012795
0.0001012822
0.0001012808
0.0001012787
0.0001012791
0.0001012835
0.0001012835
0.0001012821
0.0001012797
0.0001012848
0.0001012843
0.0001013144
0.0001470682
0.0001011886
0.0001440257
0.0001012235
0.000144007
0.0001012132
0.0001438737
0.0001011936
0.0001439044
0.00010119
0.0001434751
0.000101193
0.0001434741
0.0001011845
0.0001433212
0.0001011861
0.0001433066
0.0001011843
0.0001432793
0.0001011839
0.0001432804
0.0001011828
0.0001432484
0.0001011839
0.0001432472
0.0001011791
0.0001430934
0.0001011789
0.0001430938
0.0001011769
0.000143009
0.0001011773
0.0001430097
0.0001011769
0.0001429974
0.0001011767
0.0001429976
0.0001011764
0.0001429824
0.0001011767
0.0001429819
0.0001011763
0.0001429706
0.0001011762
0.0001429707
0.0001011759
0.0001429568
0.0001011762
0.0001429563
0.0001011758
0.0001429458
0.0001011757
0.0001429459
0.0001011754
0.000142933
0.0001011757
0.0001429325
0.0001011754
0.0001429228
0.0001011752
0.0001429229
0.0001011746
0.0001428903
0.0001011749
0.0001428899
0.0001011746
0.0001428815
0.0001011745
0.0001428816
0.0001011743
0.000142871
0.0001011745
0.0001428708
0.0001011743
0.000142863
0.0001011742
0.000142863
0.0001011737
0.0001428499
0.0001011739
0.0001428362
0.0001011737
0.0001428294
0.0001011736
0.0001428294
0.0001011735
0.0001428208
0.0001011736
0.0001428207
0.0001011735
0.0001428179
0.0001011734
0.0001428142
0.0001011733
0.0001428098
0.0001011734
0.0001428203
0.0001011732
0.0001044433
0.0001428199
0.0001011732
0.0001020035
0.0001421968
0.0001021205
0.0001499437
0.0001022916
0.0001498922
0.0001019334
0.0001497467
0.0001020839
0.0001497158
0.0001018395
0.0001496231
0.0001019296
0.0001496038
0.0001017738
0.0001495368
0.0001018332
0.0001495245
0.0001017278
0.0001494702
0.000101769
0.0001494632
0.0001016921
0.0001494164
0.0001017181
0.0001494135
0.0001023784
0.0001023979
0.0001023803
0.0001023987
0.0001024046
0.0001024036
0.0001023808
0.0001024121
0.0001024057
0.0001024177
0.0001024115
0.0001023982
0.0001023988
0.0001023833
0.0001023829
0.0001023811
0.0001023391
0.0001023967
0.0001022509
0.0001500196
0.0001031861
0.0001501003
0.0001023597
0.0001023919
0.0001019402
0.0001497929
0.0001027564
0.0001497759
0.0001018164
0.0001496645
0.000102442
0.0001496377
0.0001017339
0.0001495754
0.000102267
0.0001495444
0.0001016763
0.0001495075
0.0001021442
0.0001494736
0.0001016306
0.0001494527
0.00010205
0.000149417
0.000102381
0.0001023983
0.0001024034
0.0001023661
0.0001023923
0.0001023976
0.0001024188
0.0001024059
0.0001024121
0.0001023921
0.0001024088