/*--------------------------------*- C++ -*----------------------------------*\
  =========                 |
  \\      /  F ield         | OpenFOAM: The Open Source CFD Toolbox
   \\    /   O peration     | Website:  https://openfoam.org
    \\  /    A nd           | Version:  7
     \\/     M anipulation  |
\*---------------------------------------------------------------------------*/
FoamFile
{
    version     2.0;
    format      ascii;
    class       volScalarField;
    location    "0.01";
    object      p;
}
// * * * * * * * * * * * * * * * * * * * * * * * * * * * * * * * * * * * * * //

dimensions      [0 2 -2 0 0 0 0];

internalField   nonuniform List<scalar> 
109978
(
0.5716666
0.7200226
0.7438789
0.7387451
0.7440559
0.7641106
0.3306067
0.4242951
0.4301003
0.4361222
0.4519896
0.4713284
0.3988615
0.5582981
0.6009093
0.6123879
0.6265523
0.6409011
0.3379753
0.4876823
0.5312845
0.5437812
0.5585938
0.5737017
0.3127818
0.4572024
0.5051856
0.5227042
0.541235
0.5586752
0.2920128
0.4307213
0.4786077
0.4977202
0.5171615
0.5341523
0.2733769
0.406023
0.4531874
0.4737217
0.4938871
0.512084
0.2584726
0.385421
0.4318106
0.4525256
0.4733
0.4922198
0.245818
0.3672975
0.4125917
0.4334417
0.4545711
0.4736802
0.2348988
0.3511733
0.3954507
0.4160402
0.4372175
0.4563096
0.2249483
0.3365853
0.3799834
0.4000446
0.4212228
0.4404902
0.2160207
0.3232694
0.3658723
0.3853604
0.4065381
0.425805
0.2078882
0.3110818
0.3527912
0.37191
0.3927672
0.4119683
0.2004576
0.2997685
0.340603
0.3595828
0.3798927
0.3989718
0.1936414
0.2893644
0.3293383
0.34811
0.3678806
0.3870967
0.1873368
0.2797816
0.319149
0.3374223
0.3566945
0.3758393
0.1814975
0.2708558
0.309368
0.3273894
0.3463042
0.3651972
0.1760694
0.2625476
0.300094
0.3180138
0.3366624
0.3552057
0.1710254
0.2547575
0.2913261
0.3092667
0.3276895
0.3458173
0.1663094
0.2474996
0.283146
0.3010797
0.3192974
0.3370099
0.1619021
0.2407139
0.2754687
0.29339
0.31142
0.3288044
0.1577589
0.2344151
0.2683317
0.2861055
0.3040417
0.3212108
0.06292761
0.2285795
0.2617416
0.2794633
0.2972251
0.3142248
1.17047
1.042854
1.065639
1.079735
1.096212
1.114513
0.260353
0.7085883
0.8522317
1.000987
1.056964
1.091574
0.0695501
-0.02912189
-0.02752868
-0.01199547
0.01077752
0.05081236
0.06473581
0.3210999
0.4162545
0.5384848
0.5848985
0.6311765
0.04279573
0.1016809
0.1341316
0.218787
0.2616238
0.3097915
0.0356116
0.1418557
0.1904101
0.2840326
0.331464
0.3803871
0.03128489
0.1135484
0.1521033
0.2372982
0.2808287
0.3269126
0.02738244
0.1043148
0.1397365
0.2207999
0.2638489
0.3106502
0.02445532
0.09608301
0.1282316
0.2044819
0.245478
0.29087
0.02198635
0.08883506
0.1182804
0.1904279
0.22974
0.273903
0.01988539
0.08287515
0.1101205
0.1784176
0.2160374
0.2587923
0.01808054
0.0777493
0.1029999
0.1678533
0.2038699
0.245256
0.01653565
0.07330939
0.09684451
0.1585799
0.1930639
0.2330646
0.01518042
0.06939802
0.09145279
0.1503757
0.1834204
0.222042
0.01397504
0.0659103
0.08673788
0.1430166
0.1747219
0.2120374
0.0129044
0.06279684
0.08254796
0.1363853
0.1668301
0.202913
0.01195145
0.06000677
0.07879978
0.1303052
0.1596843
0.1945739
0.01110276
0.05747655
0.07543298
0.1248666
0.1532286
0.1869477
0.01034879
0.05518615
0.0723896
0.1199323
0.1473307
0.1799301
0.009672102
0.0531014
0.06962269
0.1154395
0.1419226
0.1734628
0.009063629
0.05118891
0.06709221
0.11134
0.1369439
0.1675145
0.008504809
0.04941778
0.06476586
0.107608
0.1323601
0.1620817
0.007989374
0.04778906
0.06265256
0.1041578
0.1281307
0.1570534
0.01213289
0.04631138
0.06072739
0.1009778
0.1241749
0.1523875
1.197995
1.037982
1.118218
1.158437
1.184419
1.20434
0.2177483
0.7559363
0.9187182
1.115189
1.177812
1.223158
0.02235092
-0.1113641
-0.1257323
-0.1525631
-0.1373215
-0.1051333
0.03443953
0.3134365
0.4645281
0.5565794
0.628999
0.6745673
0.01516727
0.06047099
0.1156468
0.159775
0.2261622
0.274233
0.01347713
0.128189
0.2099334
0.2660187
0.3307732
0.3764145
0.0117212
0.09560134
0.1653256
0.2140491
0.2693836
0.313188
0.01030275
0.08928828
0.1567193
0.2034305
0.2568207
0.3008615
0.009435482
0.08208713
0.1458859
0.1893238
0.2394553
0.2816209
0.008641015
0.07566673
0.1360641
0.1769702
0.2249156
0.2658459
0.007954397
0.07039886
0.1277385
0.1663541
0.2121558
0.2516571
0.007366971
0.06577939
0.120326
0.1569053
0.2007757
0.238905
0.006864416
0.06176528
0.1137728
0.1485185
0.1905726
0.2274377
0.006429173
0.05824702
0.1079252
0.1410118
0.1813761
0.2170432
0.006050771
0.05514269
0.1026867
0.1342741
0.1730554
0.2075797
0.005722101
0.05238213
0.09797536
0.1281929
0.1655093
0.1989464
0.005433557
0.04991037
0.09371732
0.1226647
0.158633
0.1910228
0.005179291
0.04768732
0.08986171
0.1176375
0.1523588
0.1837375
0.004954096
0.0456873
0.08635093
0.1130536
0.1466132
0.1770384
0.004752512
0.04388041
0.08314233
0.1088516
0.1413469
0.1708603
0.004573969
0.04225065
0.08019568
0.105005
0.1364865
0.1651596
0.004414488
0.04077379
0.07747658
0.1014618
0.1319952
0.1598711
0.004263973
0.03943384
0.07495826
0.09820615
0.127825
0.1549803
0.004126141
0.03817206
0.07261821
0.09518169
0.1239589
0.1504553
1.473036
1.213543
1.191287
1.146605
1.12594
1.128986
0.2243435
0.8729986
1.15113
1.355919
1.421831
1.467732
0.01751213
-0.2015936
-0.2844227
-0.3278738
-0.3271466
-0.3002654
0.03583858
0.3386564
0.43677
0.5365939
0.6018394
0.644367
0.01436939
0.05630674
0.07753139
0.1430948
0.1997455
0.2444212
0.01536362
0.1380086
0.1917363
0.2728992
0.3287441
0.372758
0.01371473
0.1094501
0.1545152
0.2200236
0.268133
0.3099579
0.01267611
0.1046544
0.1499385
0.2120104
0.2592491
0.3022762
0.01195464
0.09794563
0.1410663
0.1989245
0.2432316
0.284572
0.01119826
0.0912856
0.1321004
0.1867834
0.2291927
0.2695086
0.01053047
0.0856476
0.1242601
0.1760584
0.2165449
0.2555713
0.009934694
0.08057306
0.1170796
0.1663015
0.2050577
0.2428191
0.009407164
0.07608515
0.1106586
0.1575444
0.1946651
0.23119
0.008941018
0.07209024
0.1049053
0.1496635
0.1852581
0.2205852
0.008526521
0.06851724
0.09974434
0.1425534
0.176715
0.2108983
0.008156835
0.0653092
0.0951024
0.136117
0.1689503
0.2020454
0.007826241
0.0624164
0.09090968
0.1302748
0.1618752
0.1939266
0.007528814
0.05979649
0.0871131
0.1249571
0.1554258
0.1864675
0.007259221
0.05741363
0.08365828
0.1201097
0.1495171
0.1796061
0.007015431
0.05523852
0.08050661
0.1156775
0.144099
0.1732821
0.006792188
0.05324025
0.07761571
0.1116159
0.1391092
0.1674486
0.006584022
0.051399
0.07496054
0.1078885
0.1345194
0.1620687
0.006384067
0.04969723
0.07251983
0.1044576
0.1302771
0.1570807
0.006191012
0.04814766
0.07029277
0.1013184
0.1263859
0.1524891
1.60182
1.249268
1.222737
1.207084
1.212744
1.232087
0.2257999
0.9010328
1.248458
1.45674
1.526877
1.574981
0.01202992
-0.2659398
-0.3840095
-0.4403084
-0.4415331
-0.4118011
0.0347616
0.3130163
0.3875108
0.4821125
0.5582301
0.6091821
0.01120941
0.02528482
0.0504227
0.1088808
0.1742756
0.2230904
0.01263778
0.1118711
0.1823849
0.257049
0.3199479
0.3665575
0.01165146
0.09076736
0.147638
0.2066791
0.2597697
0.3027937
0.01104121
0.08871755
0.1453709
0.2011607
0.2527575
0.2968168
0.01056171
0.08362026
0.1376934
0.1894577
0.2376674
0.2798207
0.009943818
0.07794588
0.1293322
0.1782183
0.2242646
0.2653438
0.009363593
0.07307342
0.1218749
0.1681766
0.212096
0.2518498
0.008829484
0.06861511
0.1149419
0.1589616
0.2009594
0.2394268
0.008349292
0.06465592
0.108701
0.1506372
0.1908584
0.2280617
0.007922657
0.06112932
0.1030781
0.1431245
0.1816865
0.2176682
0.00754334
0.05797542
0.09802346
0.1363252
0.1733566
0.2081703
0.007204322
0.05515141
0.09346132
0.1301732
0.165773
0.1994708
0.006901244
0.05261001
0.08934071
0.1245776
0.1588633
0.1914926
0.006629187
0.05031609
0.08559808
0.1194877
0.1525436
0.184162
0.006383795
0.04823651
0.08219662
0.1148335
0.1467608
0.1774105
0.006163118
0.04634877
0.07908512
0.1105811
0.1414452
0.1711969
0.005963583
0.04462612
0.07623676
0.1066682
0.1365514
0.1654593
0.005782251
0.04304693
0.07360365
0.1030679
0.132018
0.1601744
0.005616497
0.04158593
0.07115916
0.09971696
0.127794
0.1552737
0.005462212
0.04021422
0.06886216
0.09660701
0.123841
0.1507908
1.610635
1.224636
1.172029
1.15251
1.155472
1.169445
0.2253369
0.9013435
1.248554
1.456835
1.526961
1.574992
0.01134962
-0.2658789
-0.3839909
-0.4402966
-0.4415235
-0.4117914
0.03477443
0.3130286
0.3875217
0.4821263
0.5582416
0.6091993
0.01101674
0.0252904
0.05042785
0.1088846
0.1742767
0.2230928
0.01243209
0.1118711
0.1823883
0.2570496
0.3199513
0.3665554
0.01158503
0.09076668
0.1476372
0.2066811
0.2597695
0.3027886
0.0110376
0.08871576
0.1453707
0.2011598
0.2527563
0.2968167
0.01058144
0.08361884
0.1376916
0.1894587
0.237667
0.2798156
0.009969414
0.07794395
0.1293317
0.1782169
0.224264
0.2653484
0.009392174
0.07307204
0.1218725
0.1681777
0.2120955
0.2518464
0.008858085
0.06861175
0.1149419
0.1589596
0.200959
0.2394321
0.008377148
0.06465363
0.1086993
0.1506385
0.1908586
0.2280575
0.007948359
0.06112601
0.1030785
0.1431237
0.181686
0.2176751
0.007567083
0.0579738
0.09802191
0.1363279
0.1733582
0.2081683
0.0072262
0.05514979
0.09346188
0.1301747
0.1657744
0.1994772
0.006921566
0.05261052
0.08934212
0.1245839
0.1588657
0.1914962
0.006648123
0.05031876
0.085604
0.1194934
0.1525513
0.1841632
0.006401989
0.04824394
0.08220751
0.1148495
0.1467707
0.1774121
0.006180796
0.0463638
0.0791096
0.1106084
0.1414686
0.1711938
0.005981461
0.0446581
0.0762848
0.1067288
0.1365962
0.1654555
0.005802062
0.04311394
0.07370432
0.1031937
0.1321305
0.1601877
0.005640229
0.04171677
0.07135325
0.09996482
0.1280224
0.1553074
0.00549333
0.04045673
0.06922254
0.09704272
0.1243076
0.1507986
1.548974
1.22296
1.222623
1.215632
1.221226
1.234299
0.2230911
0.8724704
1.151073
1.355918
1.421828
1.467729
0.0162189
-0.201658
-0.2844137
-0.3278544
-0.3271256
-0.3002397
0.03754493
0.3386351
0.4367895
0.5366223
0.6018794
0.6444155
0.01393727
0.05630585
0.07753961
0.1430984
0.1997503
0.2444256
0.01478007
0.13801
0.1917421
0.272902
0.3287413
0.3727498
0.01330601
0.1094511
0.1545161
0.220022
0.26813
0.3099494
0.01241094
0.1046551
0.1499399
0.2120078
0.2592454
0.30227
0.01176871
0.0979462
0.1410657
0.1989221
0.2432311
0.2845659
0.01105253
0.09128525
0.1321016
0.1867832
0.2291933
0.2695065
0.01040993
0.08564778
0.1242609
0.1760589
0.2165501
0.2555719
0.009829715
0.08057406
0.1170831
0.1663054
0.2050629
0.2428256
0.009311701
0.07608786
0.1106617
0.1575496
0.1946748
0.2312
0.008850958
0.07209387
0.1049123
0.149671
0.1852686
0.2205998
0.008440667
0.06852253
0.09975142
0.1425625
0.1767306
0.2109173
0.008073082
0.06531339
0.09511284
0.1361281
0.1689684
0.20207
0.007743846
0.06242134
0.09091689
0.1302884
0.1618987
0.1939576
0.007446911
0.05979829
0.08712152
0.1249727
0.1554506
0.1865133
0.007178864
0.05741364
0.0836593
0.1201262
0.1495433
0.179663
0.00693769
0.05523071
0.08049867
0.1156901
0.1441183
0.1733631
0.006718627
0.05321654
0.0775784
0.111619
0.1391052
0.1675645
0.00651929
0.05133653
0.07486473
0.1078619
0.1344399
0.162274
0.006336306
0.04956918
0.07230177
0.1043853
0.1300245
0.1574029
0.006169451
0.04790438
0.06984939
0.1011901
0.1258024
0.1530719
1.344025
1.136684
1.194454
1.205632
1.217361
1.231987
0.2200047
0.7564713
0.9188728
1.115281
1.17783
1.223144
0.02163666
-0.1112551
-0.1256216
-0.1525131
-0.1372874
-0.1051122
0.03880428
0.3134901
0.4645699
0.5566011
0.6290121
0.6745936
0.01625018
0.06047755
0.1156626
0.1597757
0.2261549
0.2742249
0.01586451
0.1281926
0.2099466
0.2660166
0.3307653
0.3763982
0.01401967
0.09560386
0.1653343
0.214044
0.2693752
0.3131679
0.01267133
0.08929543
0.1567271
0.2034271
0.2568119
0.3008436
0.01178193
0.08209402
0.1458969
0.1893177
0.2394493
0.2816082
0.01093654
0.07567163
0.1360735
0.1769682
0.2249112
0.2658345
0.01020759
0.07040269
0.127751
0.1663505
0.212154
0.2516508
0.009573101
0.06578209
0.1203383
0.1569059
0.2007761
0.2388995
0.009018832
0.06177041
0.11379
0.1485195
0.1905748
0.2274398
0.008531244
0.05825395
0.1079397
0.1410189
0.1813819
0.2170447
0.008101264
0.05515076
0.1027075
0.1342829
0.1730641
0.2075903
0.007719968
0.05239284
0.09799586
0.128208
0.1655226
0.198959
0.007380858
0.04992392
0.09374574
0.122684
0.1586535
0.1910431
0.007077509
0.04770792
0.08989284
0.117669
0.1523862
0.1837694
0.00680571
0.04571677
0.08639584
0.1130959
0.1466557
0.1770824
0.006563276
0.04392833
0.08320251
0.1089252
0.1414108
0.1709373
0.006349417
0.04232606
0.0802923
0.1051188
0.1365904
0.1652714
0.00616085
0.04089969
0.07762739
0.1016587
0.132198
0.160064
0.005995995
0.03962923
0.07518926
0.0984765
0.1281413
0.1552987
0.005853758
0.03845675
0.07293016
0.09542548
0.1244248
0.1507345
0.9250616
0.8771268
0.9133915
0.9323083
0.9557763
0.9826287
0.2491311
0.7087448
0.8523792
1.001092
1.056998
1.091584
0.0335912
-0.0290739
-0.02747756
-0.01195903
0.01079489
0.05079345
0.04292254
0.3210943
0.4162801
0.5384891
0.584908
0.63116
0.02245975
0.1016558
0.134117
0.218776
0.2616153
0.3097703
0.02013206
0.1418362
0.1903934
0.2840179
0.3314519
0.3803642
0.01794253
0.1135371
0.1520807
0.2372823
0.2808137
0.3268944
0.01598979
0.1043128
0.1397139
0.2207842
0.263834
0.3106348
0.01468166
0.09607835
0.1282058
0.2044677
0.2454662
0.2908571
0.01356467
0.08882158
0.1182591
0.1904151
0.2297298
0.2738964
0.01261473
0.08286731
0.110098
0.1784089
0.2160315
0.258788
0.01180378
0.07773825
0.1029844
0.1678481
0.2038659
0.2452599
0.01110404
0.07330463
0.09683027
0.1585787
0.1930663
0.2330696
0.0104643
0.06940221
0.09144577
0.150378
0.1834253
0.2220553
0.009862259
0.06591515
0.08673192
0.1430222
0.1747339
0.2120537
0.009321407
0.06280297
0.08254775
0.1363949
0.1668479
0.2029388
0.008822196
0.06001225
0.07879662
0.1303187
0.1597092
0.1946085
0.008372151
0.05747681
0.07543211
0.1248875
0.1532651
0.1870001
0.007961761
0.05518754
0.07238364
0.1199636
0.1473741
0.1800074
0.007594936
0.05309751
0.06960717
0.1154841
0.1419672
0.1735833
0.007257368
0.05115881
0.06705008
0.1114054
0.1369685
0.1676995
0.006940545
0.04935874
0.06465503
0.1077271
0.1323071
0.1624466
0.00663846
0.04767882
0.06241952
0.1044343
0.1278762
0.1578625
0.01202331
0.0461234
0.06016129
0.1015036
0.1234889
0.1535804
0.5883723
0.6242947
0.6582715
0.6839262
0.711041
0.7290192
0.02412628
0.2945784
0.463649
0.579003
0.6155851
0.6430007
0.6719286
0.02034169
0.2052838
0.3967426
0.4553087
0.4630329
0.4808258
0.5079501
0.01759026
0.2489411
0.4873824
0.5766164
0.5934298
0.6098105
0.6257535
0.01331144
0.1897835
0.4099787
0.4967734
0.5160027
0.5343799
0.5535833
0.01132584
0.1733718
0.3880232
0.4776492
0.501453
0.521805
0.5421766
0.01032428
0.1566949
0.3610166
0.4478845
0.4730547
0.4944593
0.5146231
0.009386253
0.1437004
0.3382207
0.4221258
0.448489
0.4711141
0.4921461
0.008683546
0.1336438
0.3190955
0.4003159
0.4269197
0.4502995
0.471861
0.008105314
0.1251628
0.3022411
0.3808898
0.4071755
0.4312556
0.4531994
0.007580656
0.1179013
0.287381
0.3636035
0.3894336
0.4137315
0.4359689
0.007103282
0.1116086
0.2742054
0.3480612
0.3732838
0.3975391
0.4202149
0.006701939
0.10611
0.2623835
0.3339514
0.3585674
0.3825328
0.4053915
0.00632369
0.1012374
0.2517171
0.3210225
0.3451546
0.3685562
0.3914856
0.006014051
0.09687735
0.2420547
0.3091748
0.3328535
0.3556285
0.3783439
0.005738014
0.09296972
0.2332171
0.298289
0.3214763
0.3436339
0.3661424
0.005475375
0.08941444
0.2250907
0.2883424
0.3108928
0.3325112
0.3546817
0.005238087
0.08617271
0.2175532
0.2789705
0.3010036
0.3222185
0.343918
0.005003724
0.08319077
0.2105484
0.270253
0.29181
0.3126803
0.3338784
0.004794836
0.08045318
0.2040335
0.2621264
0.2832772
0.3038232
0.3244967
0.004602129
0.07792566
0.1979815
0.2545508
0.2753343
0.2955492
0.3157449
0.004422404
0.07558451
0.1923524
0.2474704
0.2678765
0.2878002
0.30765
0.004247968
0.07345385
0.1871084
0.2408452
0.2608806
0.2805807
0.3000552
0.004102154
0.1902104
0.1821161
0.234509
0.2541116
0.2735811
0.2927227
0.1752947
0.43147
0.0438003
0.4592762
0.4671519
0.1985859
0.5877166
0.12832
0.489945
0.5535536
0.6227422
0.3107841
0.6239125
0.1196464
0.6495561
0.544045
0.7915405
0.3805767
0.6582771
0.1634092
0.7227568
0.558556
0.8384164
0.4352119
0.6837204
0.2227127
0.7497738
0.5861082
0.8739779
0.4853922
0.7111356
0.2767166
0.7764867
0.6211873
0.9042583
0.7289752
0.8037582
-0.03195445
0.1324747
0.02407459
0.1438912
0.04111251
0.275946
-0.05548906
0.04857381
0.020346
0.1211732
0.02350271
0.161705
-0.06455269
0.04030859
0.01756494
0.1295648
0.02055916
0.1403036
-0.08119332
0.006647885
0.0132914
0.09405376
0.01599041
0.1053601
-0.09015589
-0.002702265
0.01130935
0.07920805
0.01445157
0.09454937
-0.09175347
-0.01168744
0.01031083
0.06936628
0.01280048
0.08265826
-0.09276283
-0.01808341
0.009387731
0.06196525
0.01155502
0.07432479
-0.09222083
-0.02238364
0.008686378
0.056482
0.01058162
0.06764559
-0.09087129
-0.02529869
0.008102148
0.05190766
0.009749485
0.06203049
-0.08906427
-0.02721623
0.007573592
0.04807626
0.009051103
0.05729664
-0.0870353
-0.02853191
0.007101851
0.04476737
0.008455056
0.05318712
-0.08497914
-0.02947068
0.00669156
0.042011
0.007918438
0.04957188
-0.08296892
-0.03017196
0.006328528
0.03960594
0.007435191
0.04636853
-0.08102446
-0.03076652
0.006016599
0.03746833
0.007012833
0.04353236
-0.07912486
-0.03122365
0.005740603
0.03556067
0.006629696
0.040981
-0.07726151
-0.03150862
0.005478143
0.03382518
0.006289347
0.03869798
-0.07544632
-0.03169549
0.005235658
0.03225612
0.005994106
0.03665136
-0.07369177
-0.03181895
0.005004503
0.03083528
0.005724581
0.03482205
-0.072006
-0.03188456
0.004796201
0.02953978
0.00546768
0.03316425
-0.07036203
-0.03189632
0.004598024
0.0283599
0.00523939
0.03165671
-0.06877922
-0.0318959
0.004418713
0.02726806
0.005033073
0.03027549
-0.06727533
-0.03195758
0.004256544
0.02625587
0.004844147
0.02899487
-0.06587409
0.07791478
0.004114041
0.02534867
0.004684114
0.02787618
0.9250011
-0.01982601
0.4235729
1.603471
0.004362909
0.5031844
1.254055
-0.004057912
0.4511652
1.763385
-0.003658448
0.4396829
1.691512
-0.005156081
0.4115163
1.928083
-0.005979227
0.3983108
1.914606
-0.005396287
0.392762
1.971011
-0.006175365
0.3882114
1.976389
-0.006030527
0.388739
1.907372
-0.005752536
0.3905864
1.917726
-0.005833461
0.4017783
1.710525
-0.004780727
0.4109104
1.766963
-0.003486371
0.4400902
1.276445
-0.004881052
0.4509807
1.602985
0.004186575
0.5035619
0.9281111
-0.01976883
0.4234179
0.4322536
0.04378998
0.4592639
0.175427
0.1287877
0.4900635
0.5537459
0.4671918
0.1986568
0.1197427
0.6498106
0.5442977
0.6229252
0.3108351
0.1636741
0.7229653
0.5586532
0.7916173
0.3807434
0.2225884
0.7498735
0.5862833
0.8385452
0.4351829
0.2768679
0.7766061
0.6212865
0.8739767
0.4854587
0.09406806
0.01603379
0.1053402
-0.08112521
0.006699922
0.06935455
0.01279704
0.08266308
-0.09168449
-0.0116823
0.06196624
0.01154061
0.07434641
-0.09277048
-0.018125
0.0565154
0.01057901
0.06768595
-0.09226161
-0.02241642
0.05197444
0.009756657
0.06208483
-0.09087391
-0.0252108
0.04808101
0.009047005
0.05731264
-0.08899916
-0.02724013
0.03964255
0.007432988
0.04639699
-0.08301325
-0.03017954
0.03749768
0.007011337
0.04355742
-0.08103159
-0.03076455
0.03558764
0.006628109
0.04100348
-0.0791309
-0.03122217
0.03385278
0.006287747
0.03871838
-0.0772635
-0.03154422
0.03085885
0.005723691
0.03484577
-0.07366959
-0.03180881
0.02956804
0.005468692
0.03319112
-0.07200615
-0.03189482
0.02724449
0.005029653
0.03026197
-0.06867351
-0.03183798
0.02623006
0.004838305
0.02898239
-0.06726341
-0.03191334
0.02527964
0.00466943
0.0278103
-0.06587982
0.0777847
0.2355387
0.2168976
0.2992619
0.5765786
0.4653381
0.4938484
0.3273385
0.7093543
0.5236312
0.5718171
0.3638439
0.7584635
0.5330535
0.6199077
0.398571
0.7953905
0.5594062
0.6559025
0.4334831
0.8247116
0.5896346
0.6885335
0.4691918
0.8548381
0.6203571
0.7235453
0.1050934
0.1251349
0.1411461
0.1674128
0.06434543
0.07703758
0.0519648
0.09018868
0.05133016
0.04875192
0.0400322
0.06589495
0.03863302
0.03300145
0.03192967
0.0434729
0.03071916
0.01894646
0.02505853
0.02984537
0.02535725
0.01191659
0.02124797
0.02080361
0.02113106
0.006324558
0.01786069
0.01388606
0.01794115
0.002311651
0.01531203
0.008792166
0.01544565
-0.0007058936
0.01324593
0.004867666
0.01344423
-0.003022408
0.01160843
0.001792643
0.01180318
-0.004816254
0.01031455
-0.0006438611
0.01039739
-0.006309296
0.009131806
-0.002653691
0.00917889
-0.007557601
0.008083105
-0.004334134
0.008148774
-0.008601195
0.007206934
-0.005742003
0.007258952
-0.00946335
0.006445144
-0.006915466
0.006482358
-0.0101427
0.005757665
-0.007877366
0.005796756
-0.01069911
0.005154449
-0.00868776
0.005196007
-0.01115822
0.004626577
-0.009378216
0.004669635
-0.01155304
0.004162152
-0.009970226
0.004201638
-0.01189695
0.003756989
-0.01048131
0.003782395
-0.01219632
0.003394832
-0.01091978
0.003403661
-0.01245072
0.00306876
-0.01130833
0.003003629
-0.01269384
0.002750905
-0.0116963
0.2096965
0.2153785
0.2071403
0.2223757
0.2175917
0.22317
0.2189813
0.2222829
0.2213938
0.2204048
0.2221644
0.2216682
0.2229969
0.2145825
0.2295411
0.206757
0.2778696
0.188901
0.8038674
0.9042662
0.1439694
0.04110033
0.2760338
-0.03184713
0.1324652
0.1211971
0.02352223
0.1617421
-0.05551726
0.04864274
0.12959
0.02060533
0.1403231
-0.06453351
0.04036887
0.07922489
0.01447785
0.09454586
-0.09008874
-0.002638818
0.04483706
0.008462019
0.05323999
-0.08704805
-0.02846113
0.04202014
0.007907338
0.04957825
-0.08492137
-0.02950851
0.03232446
0.005995743
0.03669279
-0.07545048
-0.03168561
0.02842139
0.005246223
0.03170201
-0.07036152
-0.03174213
0.3275042
0.3703624
0.2636715
0.4217784
0.1419471
0.1685192
0.09490553
0.03621658
0.2801556
0.1855717
0.5212564
0.499411
0.2811253
0.6726236
0.5370038
0.5404996
0.3112047
0.7339723
0.5419476
0.5876837
0.3486106
0.7688061
0.5624485
0.625107
0.3878153
0.7997996
0.5854589
0.6642259
0.4254354
0.8279364
0.08644161
0.1204081
0.09409383
0.1286625
0.04755508
0.07621388
0.05457632
0.06439793
0.04374742
0.05585028
0.04740315
0.04884821
0.03210118
0.03608025
0.03474284
0.03102021
0.0268784
0.02551256
0.02900172
0.02093389
0.02246317
0.01739887
0.02402596
0.01374693
0.01910608
0.01153098
0.02037544
0.008218313
0.01648635
0.007131625
0.0175352
0.004088208
0.01441474
0.003741007
0.01526999
0.0008893413
0.01274717
0.001073861
0.01342071
-0.001622587
0.01134151
-0.001083577
0.01183178
-0.003631379
0.01011829
-0.002875998
0.0104539
-0.005259094
0.009052924
-0.00438527
0.009286599
-0.006617604
0.0081325
-0.005655573
0.008277759
-0.007753535
0.007328955
-0.006688968
0.007403701
-0.008698131
0.006619602
-0.007550241
0.006634873
-0.009467869
0.005996394
-0.008268088
0.005955495
-0.01011827
0.005446223
-0.008894264
0.005351426
-0.0106779
0.004954539
-0.009443871
0.004816349
-0.01115279
0.004510078
-0.009934415
0.004333116
-0.01155758
0.004107774
-0.01035874
0.003891442
-0.01189946
0.003736626
-0.0107722
0.003482911
-0.01219942
0.003328644
0.04817405
-0.01250477
0.003070208
0.228286
0.203501
0.2217406
0.213457
0.2218028
0.2205995
0.2219879
0.2205225
0.2206754
0.2216459
0.2188969
0.2213586
0.205928
0.2241621
0.2103194
0.2199048
0.2341383
0.2165664
0.5213289
0.4996024
0.2813197
0.6726992
0.3274903
0.7095089
0.5237994
0.5719328
0.03848037
0.03294424
0.03182696
0.04342234
0.02529903
0.01195616
0.02116931
0.02081508
0.02244103
0.01743002
0.02400322
0.01377692
0.02114115
0.006341072
0.01785626
0.01388951
0.01271186
0.00108277
0.01338806
-0.001596303
0.009162706
-0.007573576
0.008093076
-0.00431949
0.009057248
-0.004367833
0.009276654
-0.006607233
0.008143162
-0.00859037
0.007202884
-0.005723388
0.008132139
-0.005642709
0.008272004
-0.007740168
0.0072582
-0.009455688
0.006444853
-0.006902938
0.007330001
-0.006676663
0.007399383
-0.008690128
0.00648378
-0.01013474
0.005756963
-0.007865965
0.006609397
-0.007540118
0.006631167
-0.009458814
0.005195621
-0.01113117
0.00462579
-0.009351068
0.005459739
-0.008868463
0.005359324
-0.01065654
0.004680807
-0.01153299
0.004173464
-0.009948286
0.004958263
-0.009432437
0.004824064
-0.01113414
0.003795401
-0.0121437
0.003382515
-0.01088907
0.004146709
-0.01033969
0.003923726
-0.01186473
0.003456523
-0.01243127
0.003116015
-0.01128668
0.003796543
-0.01076186
0.003537593
-0.01217618
0.003086396
-0.01267987
0.00281954
-0.01170039
0.003413949
-0.05022238
-0.01251061
0.003145529
0.5137196
0.5841692
0.4538366
0.5939454
0.5538275
0.4392462
0.5210642
0.6876919
0.6510644
0.5085857
0.5349207
0.7083524
0.6666332
0.5282041
0.561995
0.7346544
0.6921406
0.555906
0.5884358
0.7592633
0.7160113
0.5834656
0.6168085
0.7859531
0.7420067
0.6135101
0.3611441
0.3653359
0.3653181
0.3658039
0.365133
0.3666139
0.3639468
0.3696376
0.3642435
0.3726338
0.3691587
0.3667193
0.3667202
0.3684596
0.3597065
0.3608171
0.3685481
0.3678156
0.4746947
0.3302848
0.3492351
0.5061156
0.3711179
0.3633174
0.6299617
0.4306567
0.4541211
0.6553918
0.6397631
0.452006
0.468747
0.6724698
0.6618021
0.4830902
0.4997342
0.695166
0.686656
0.5137588
0.5287031
0.7212389
0.7134036
0.5457415
0.5595552
0.7484571
0.3628797
0.3652548
0.364326
0.362538
0.3630879
0.3675073
0.3717053
0.3718552
0.3703024
0.3638975
0.3689257
0.3691567
0.3652562
0.3693451
0.3613284
0.3675782
0.5141906
0.5841822
0.3280712
0.3702951
0.263619
0.4218058
0.1410751
0.1683224
0.09441691
0.0359168
0.299356
0.5764424
0.4647448
0.4938803
0.5213031
0.6878834
0.5087965
0.6512793
0.5371612
0.5404094
0.3110323
0.7340884
0.3636182
0.7585816
0.5331026
0.6200279
0.5424208
0.5878528
0.3487238
0.7690931
0.3986556
0.7954654
0.5596944
0.6560549
0.4332671
0.8249742
0.5894075
0.6885633
0.5858378
0.664286
0.4255399
0.8280582
0.03195396
0.0360204
0.03458473
0.03101086
-0.001493543
0.01507639
-0.001828579
0.01482514
-0.001601368
0.01119851
0.0143981
-0.006956962
0.01915774
0.01156289
0.02038931
0.008221097
0.01792924
0.002298385
0.01533213
0.008815107
0.01646666
0.007143029
0.01751553
0.004101195
0.01540086
-0.0007183943
0.01320167
0.004880927
0.01435802
0.003755875
0.01519078
0.0008822883
0.01339981
-0.002995996
0.01153755
0.0018105
-0.002249627
0.009268413
-0.002503658
0.009020573
-0.002379005
0.005496966
-0.002599611
0.005295511
-0.002385739
0.003722594
0.005188107
-0.004944776
-0.002171587
0.002449361
0.00235369
-0.002389289
0.1976271
0.260835
0.2447091
0.2127826
0.1847207
0.2754188
0.1494592
0.2475747
0.3479961
0.4034116
0.6026136
0.4157102
0.4451603
0.6203909
0.6470134
0.4558979
0.4757034
0.674905
0.6624309
0.4827145
0.4969557
0.6957101
0.6859098
0.5129155
0.5243608
0.7214219
0.7096755
0.5426234
0.5532806
0.7467323
0.7359729
0.5744526
0.5845456
0.7741229
0.3668721
0.368142
0.3645751
0.3708702
0.3603656
0.3658168
0.3672834
0.3672521
0.3661928
0.3670767
0.3654568
0.3696952
0.3701055
0.3659152
0.3671699
0.368224
0.3777376
0.3897813
0.8548885
0.6203907
0.4690861
0.1250682
0.1408722
0.1675051
0.1051212
0.120523
0.1287642
0.0866871
0.09428066
0.07706771
0.09020773
0.06438092
0.05202167
0.07617698
0.06439755
0.04757501
0.05445953
0.0486769
0.06579729
0.05116047
0.03996853
0.05576059
0.04722004
0.04879486
0.04360178
0.01893491
0.0249321
0.02981888
0.03059881
0.02550666
0.02887511
0.02093271
0.02677077
-0.00483138
0.01025865
-0.0006592175
0.01175068
-0.006309493
-0.002661494
0.01035858
0.009061234
-0.0107058
0.005133242
-0.008666619
0.005764824
-0.0118985
0.003739637
-0.01046382
0.004177754
-0.009896554
0.004294973
-0.01154191
0.004477963
0.3069525
0.3926236
0.3471648
0.2872775
0.3710229
0.3923531
0.5045527
0.6622695
0.6295074
0.4888178
0.5155796
0.6901552
0.6506144
0.5060638
0.535052
0.7112883
0.6689306
0.5264635
0.5609688
0.7364364
0.6927398
0.5533066
0.5883537
0.7617728
0.7177531
0.5816994
0.3637974
0.3710188
0.3677856
0.3704656
0.3701749
0.3694723
0.3663639
0.3694947
0.3692097
0.3669914
0.3706883
0.3705575
0.3641945
0.3590772
0.3648639
0.3640478
0.3495036
0.4003227
0.198385
0.2607168
0.2129069
0.2447877
0.1844655
0.276575
0.2463983
0.14969
0.6472718
0.4561355
0.6751065
0.476009
-0.001396571
0.01412056
0.01370186
-0.001761082
-0.001581742
0.008531792
-0.004332856
0.009861575
-0.002261176
0.005725857
0.005439064
-0.002444687
-0.001871697
0.004716799
-0.003887598
0.005860674
0.003981414
0.07274154
0.004001717
0.02456153
0.02436762
0.07261873
0.045565
0.002421243
-0.04929022
0.002514371
-0.002231743
0.001143576
0.00225729
-0.003894355
0.02189505
0.06251308
0.01551476
0.06683189
0.007187052
0.03423534
-0.001708021
0.03839605
0.00292227
0.02419192
-0.005960839
0.02903692
0.001056976
0.01934062
-0.006564128
0.02348529
-0.0005009619
0.01515398
-0.007567129
0.01936819
-0.001104424
0.0129504
-0.007231457
0.01663504
-0.001597916
0.01119554
-0.006960705
0.01439912
-0.001885667
0.009820116
-0.006635802
0.01261832
-0.002069946
0.008665199
-0.006351919
0.01113496
-0.00219743
0.007665876
-0.006093252
0.009886007
-0.002259628
0.006816794
-0.00584602
0.008835318
-0.002312663
0.00607106
-0.005616689
0.007916038
-0.002353666
0.005385917
-0.005433009
0.007102694
-0.002378327
0.004759509
-0.005277291
0.006387027
-0.002391704
0.004205045
-0.005112113
0.005750334
-0.002384719
0.003721573
-0.004940972
0.005187076
-0.002373458
0.003291973
-0.004768118
0.004684175
-0.002354015
0.002905792
-0.004599843
0.004235769
-0.002329665
0.002559249
-0.00444107
0.003833576
-0.002295715
0.002245923
-0.004295045
0.003474686
-0.002268617
0.001956558
-0.004170351
0.003146022
-0.00224889
0.001682392
-0.004062776
0.00284084
-0.00223805
0.001417069
-0.003980177
0.002553233
0.006769748
0.08833526
0.02689073
0.07101918
0.008166888
0.04623835
0.01241736
0.04241155
0.002219243
0.03210359
0.003779744
0.02974364
0.00148669
0.02589223
0.002038864
0.02483616
-0.0003341731
0.0207371
-0.0004140789
0.02008363
-0.0009149721
0.01756965
-0.001230152
0.01719729
-0.001488177
0.0150753
-0.00182569
0.01482623
-0.001829511
0.01317939
-0.002129482
0.01294302
-0.00203602
0.01164562
-0.002312323
0.0114063
-0.002161279
0.01035947
-0.002423057
0.0101176
-0.002243407
0.009272272
-0.002489439
0.009022376
-0.002306829
0.008323402
-0.002541897
0.008073502
-0.002352934
0.007480797
-0.002585995
0.007241216
-0.0023674
0.006737796
-0.002607677
0.006518289
-0.002364733
0.006081569
-0.002607495
0.00588064
-0.002378975
0.005494813
-0.002595924
0.005293756
-0.002381257
0.004971639
-0.002576771
0.004772729
-0.002372419
0.004502064
-0.002550418
0.004306771
-0.002344526
0.004080413
-0.002520713
0.003899894
-0.002309278
0.003699383
-0.002487506
0.003534827
-0.002277068
0.003349787
-0.002463211
0.003202615
-0.002258126
0.003025305
-0.002446235