/*--------------------------------*- C++ -*----------------------------------*\
  =========                 |
  \\      /  F ield         | OpenFOAM: The Open Source CFD Toolbox
   \\    /   O peration     | Website:  https://openfoam.org
    \\  /    A nd           | Version:  7
     \\/     M anipulation  |
\*---------------------------------------------------------------------------*/
FoamFile
{
    version     2.0;
    format      ascii;
    class       volVectorField;
    location    "0.01";
    object      U;
}
// * * * * * * * * * * * * * * * * * * * * * * * * * * * * * * * * * * * * * //

dimensions      [0 1 -1 0 0 0 0];

internalField   nonuniform List<vector> 
109978
(
(-1.189557 0.1989146 -0.01585737)
(-1.062501 0.2909127 0.01519463)
(-0.962919 0.3227744 0.01656328)
(-0.8863182 0.349017 0.01565261)
(-0.8228434 0.3660745 0.01494305)
(-0.7693247 0.378695 0.01445924)
(-1.078047 0.1724756 -0.031846)
(-0.9975024 0.2660798 0.01696078)
(-0.9287611 0.3194368 0.01160581)
(-0.8666834 0.3559117 0.009196894)
(-0.8114997 0.3812757 0.007320792)
(-0.7627701 0.399883 0.005668457)
(-0.9876042 0.1218798 -0.02398946)
(-0.9339801 0.1993967 0.01955016)
(-0.8829697 0.253553 0.01497077)
(-0.8329719 0.2933092 0.01232896)
(-0.7867537 0.3230064 0.01043213)
(-0.7441785 0.3456919 0.008894612)
(-0.911157 0.0964115 -0.02123459)
(-0.8733216 0.1634551 0.01971506)
(-0.8357933 0.2153606 0.01576158)
(-0.7959495 0.2555176 0.01372472)
(-0.7580115 0.2877282 0.01194457)
(-0.7215949 0.3131723 0.01040263)
(-0.8479576 0.07758874 -0.0201001)
(-0.8192699 0.1344908 0.01861165)
(-0.7908994 0.1812366 0.01512003)
(-0.7596961 0.2199591 0.01372997)
(-0.7284511 0.2522344 0.01205325)
(-0.697373 0.2783613 0.01063963)
(-0.7949142 0.06484232 -0.0191508)
(-0.7716943 0.1138626 0.01773511)
(-0.7495305 0.1558576 0.01461807)
(-0.7250897 0.1926972 0.01360159)
(-0.6988479 0.2232845 0.01218812)
(-0.6725154 0.2498172 0.01084765)
(-0.7492985 0.05550528 -0.01828265)
(-0.7297875 0.09829758 0.01689788)
(-0.7118818 0.1359379 0.01407658)
(-0.6918818 0.1699193 0.01319386)
(-0.6702748 0.1991344 0.01222395)
(-0.6479338 0.2252725 0.01089236)
(-0.70946 0.04836428 -0.01748899)
(-0.6925031 0.0861428 0.01612047)
(-0.6777261 0.1200479 0.01355105)
(-0.6611095 0.1512687 0.01278037)
(-0.6435427 0.1793609 0.01216103)
(-0.6240219 0.2037908 0.01087712)
(-0.6741951 0.04273676 -0.0167606)
(-0.6591166 0.07645535 0.01540981)
(-0.6466419 0.1071578 0.01305446)
(-0.6326377 0.1358407 0.0124026)
(-0.6176314 0.1621643 0.01182432)
(-0.600885 0.1853466 0.01087528)
(-0.6426539 0.03817871 -0.01608825)
(-0.6289693 0.06849403 0.01475892)
(-0.6183048 0.09653209 0.01258272)
(-0.6061736 0.1228395 0.01202407)
(-0.5933138 0.1473645 0.0114824)
(-0.5789482 0.1695015 0.01083641)
(-0.6142003 0.0344129 -0.01547814)
(-0.6018822 0.06195254 0.01429582)
(-0.5923715 0.08752158 0.0121259)
(-0.5817132 0.1117741 0.0116493)
(-0.5705646 0.1346289 0.01116463)
(-0.5582583 0.1558657 0.01069526)
(-0.588351 0.03124947 -0.0149064)
(-0.5771186 0.05641415 0.01385302)
(-0.5685309 0.07982035 0.01170416)
(-0.5591356 0.1022784 0.01128397)
(-0.5493074 0.1235577 0.01086793)
(-0.5383935 0.1435295 0.01040981)
(-0.5647183 0.02854686 -0.01437815)
(-0.5543735 0.05165285 0.01342965)
(-0.5465596 0.0731477 0.01132504)
(-0.5381973 0.09404759 0.01093403)
(-0.529456 0.1138416 0.01057445)
(-0.5196946 0.1325964 0.01013062)
(-0.5430071 0.02622475 -0.01388708)
(-0.5333588 0.04749572 0.0130239)
(-0.52637 0.06737398 0.01104875)
(-0.5187343 0.08677571 0.01059477)
(-0.5108252 0.1052222 0.01028894)
(-0.5020584 0.1228318 0.009871625)
(-0.5229812 0.02417559 -0.0134355)
(-0.513936 0.04384713 0.01264046)
(-0.5076158 0.062291 0.01078245)
(-0.5005916 0.0803065 0.01026839)
(-0.4933597 0.09754581 0.01001106)
(-0.4854464 0.1141079 0.009646716)
(-0.5044523 0.02236254 -0.01300896)
(-0.4959318 0.04060346 0.01228114)
(-0.490177 0.05777137 0.01051864)
(-0.4836591 0.07452316 0.009962252)
(-0.4770217 0.09066708 0.009740988)
(-0.4698292 0.1062293 0.009420605)
(-0.4872547 0.02074331 -0.01261355)
(-0.4791941 0.03769928 0.01194212)
(-0.4739197 0.053711 0.01026332)
(-0.4678197 0.06929918 0.0096764)
(-0.4617663 0.08448471 0.009479538)
(-0.4551646 0.09907879 0.009196898)
(-0.4712618 0.0192862 -0.01223863)
(-0.4636092 0.03508389 0.01162335)
(-0.4587558 0.0500316 0.01001104)
(-0.4531267 0.06460293 0.00944863)
(-0.4474748 0.07885514 0.009223789)
(-0.441341 0.09254655 0.008979546)
(-0.4563543 0.01796477 -0.01189078)
(-0.4490686 0.03271173 0.01131996)
(-0.4445902 0.04668139 0.009764163)
(-0.4394233 0.06034636 0.009252023)
(-0.4340579 0.07369488 0.008972399)
(-0.4282821 0.0865396 0.008767985)
(-0.4424433 0.01676154 -0.01156078)
(-0.4354886 0.03054798 0.01103333)
(-0.4313307 0.04360777 0.009529518)
(-0.4265682 0.05644288 0.009065451)
(-0.4214379 0.06893186 0.008731555)
(-0.4159791 0.08102925 0.008562988)
(-0.42944 0.01565956 -0.0112535)
(-0.4227828 0.02856032 0.01076002)
(-0.4188793 0.040773 0.009310969)
(-0.4145154 0.05284065 0.008886305)
(-0.4095746 0.064518 0.008506784)
(-0.4044646 0.07595312 0.008362684)
(-0.4172669 0.01464636 -0.01096275)
(-0.4108929 0.02671235 0.01050486)
(-0.4072224 0.03816336 0.009106505)
(-0.4031702 0.04947946 0.008711678)
(-0.3985241 0.06044569 0.008329676)
(-0.3936589 0.07122445 0.00815815)
(-0.3740532 0.01258768 -0.02537296)
(-0.3997705 0.02499697 0.01026406)
(-0.3963085 0.03572596 0.0089061)
(-0.3925295 0.046343 0.008531927)
(-0.3882151 0.0566639 0.00817849)
(-0.3834958 0.06677769 0.007950276)
(-1.267023 0.2597476 -0.09277974)
(-1.058775 0.3479874 -0.07799522)
(-0.9447711 0.3603642 -0.07631283)
(-0.8623717 0.3692919 -0.07412988)
(-0.7972012 0.3753711 -0.07202651)
(-0.7439689 0.3795682 -0.06993549)
(-1.284828 0.04884592 -0.005776838)
(-1.147296 0.2031372 -0.03024356)
(-1.029151 0.2800696 -0.02845695)
(-0.941818 0.320862 -0.02522814)
(-0.8703495 0.3469829 -0.02812266)
(-0.8108862 0.364346 -0.03029019)
(-1.099982 0.04332474 -0.008202373)
(-1.017568 0.1980581 0.004834764)
(-0.9574059 0.2765947 0.01418956)
(-0.8980398 0.329807 0.01842925)
(-0.8411886 0.3649505 0.01947642)
(-0.7903094 0.3900009 0.02026864)
(-0.9860759 0.02565272 -0.008323162)
(-0.9477514 0.1257142 -0.009696674)
(-0.8993937 0.1922727 -0.004198143)
(-0.8563519 0.2414749 -0.003759069)
(-0.8103601 0.2790938 -0.003742625)
(-0.767497 0.3077735 -0.003554297)
(-0.9010749 0.02027201 -0.008163879)
(-0.8749934 0.1069221 -0.005907588)
(-0.8419579 0.166019 2.678691e-05)
(-0.8112277 0.2141963 0.0008239513)
(-0.775207 0.2526558 0.00133534)
(-0.7398748 0.2834234 0.001942108)
(-0.8349988 0.01586079 -0.008119357)
(-0.816984 0.08531885 -0.006050033)
(-0.7922231 0.1360432 -0.0008787125)
(-0.7697728 0.1796347 -0.000693502)
(-0.7412061 0.2162837 -0.0006167793)
(-0.7120847 0.2467297 -0.0002805997)
(-0.7808396 0.0131331 -0.008019096)
(-0.7669669 0.07207837 -0.0055258)
(-0.7477247 0.1165005 -0.0006092854)
(-0.7309658 0.1562115 -0.0005244171)
(-0.708078 0.1908156 -0.0005188381)
(-0.6840461 0.2205329 -0.0001906659)
(-0.7347973 0.01112447 -0.007849537)
(-0.7236604 0.06197278 -0.005111448)
(-0.7081798 0.1010891 -0.0004102981)
(-0.6954814 0.1369885 -0.0004250422)
(-0.6769014 0.1690853 -0.0005633924)
(-0.656939 0.1973904 -0.0003628923)
(-0.6949118 0.009611281 -0.007663056)
(-0.6856783 0.05419292 -0.004803816)
(-0.6727872 0.08896436 -0.0002793153)
(-0.6629852 0.121517 -0.0003303211)
(-0.6476793 0.1512101 -0.0005241091)
(-0.6309635 0.1779571 -0.000409474)
(-0.659793 0.008436259 -0.00746715)
(-0.6519332 0.04805167 -0.004539825)
(-0.6409243 0.07922204 -0.0001715501)
(-0.6332508 0.1088313 -0.0002453707)
(-0.6204675 0.1362402 -0.0004508515)
(-0.6063418 0.1613469 -0.0004162989)
(-0.6284954 0.007493667 -0.007270548)
(-0.6216771 0.04304955 -0.004318181)
(-0.6120667 0.07120253 -9.813459e-05)
(-0.605982 0.0982385 -0.0001804199)
(-0.5951681 0.1235501 -0.0003805114)
(-0.5831126 0.1470559 -0.0004028318)
(-0.6003337 0.006723462 -0.007076144)
(-0.5943221 0.03889995 -0.004123652)
(-0.5857877 0.06449266 -3.787173e-05)
(-0.5809163 0.08926861 -0.0001254815)
(-0.5716527 0.1126835 -0.0003121764)
(-0.5612643 0.1346586 -0.0003814601)
(-0.5747985 0.00608185 -0.006885833)
(-0.5694264 0.03539525 -0.003951828)
(-0.5617427 0.05878425 9.475064e-06)
(-0.5578039 0.0815738 -8.346131e-05)
(-0.5497824 0.1032783 -0.0002614731)
(-0.5407488 0.1238097 -0.0003453029)
(-0.5514965 0.005536889 -0.006701821)
(-0.546645 0.03238979 -0.003794273)
(-0.5396483 0.05386326 4.623932e-05)
(-0.5364339 0.07489695 -5.229326e-05)
(-0.5294198 0.09505469 -0.0002258305)
(-0.5215007 0.1142435 -0.0003074565)
(-0.5301185 0.005067582 -0.006524753)
(-0.5257026 0.02977816 -0.003649027)
(-0.5192697 0.04957249 7.639352e-05)
(-0.5166236 0.06904385 -2.311498e-05)
(-0.510439 0.08779749 -0.0001979984)
(-0.5034401 0.1057442 -0.0002727703)
(-0.5104219 0.004658737 -0.006355469)
(-0.5063744 0.02748239 -0.003515301)
(-0.5004122 0.04579288 0.0001011578)
(-0.4982193 0.06386353 2.226405e-06)
(-0.4927226 0.08133821 -0.0001735683)
(-0.48649 0.09814191 -0.0002388707)
(-0.4922095 0.004299113 -0.006194467)
(-0.4884781 0.02544496 -0.003391142)
(-0.4829143 0.04243109 0.0001217621)
(-0.4810875 0.05923961 2.326763e-05)
(-0.4761635 0.07554737 -0.000153123)
(-0.4705759 0.0912985 -0.0002133304)
(-0.4753201 0.003979039 -0.006041254)
(-0.4718627 0.02362111 -0.0032757)
(-0.4666405 0.03941613 0.0001391119)
(-0.4651125 0.05507791 4.014204e-05)
(-0.4606663 0.07031972 -0.000136675)
(-0.4556276 0.08509654 -0.0001960281)
(-0.4596194 0.003691638 -0.005895714)
(-0.4564016 0.02197557 -0.003168509)
(-0.4514771 0.0366917 0.0001539137)
(-0.4501912 0.05130763 5.560497e-05)
(-0.4461476 0.06557372 -0.0001219609)
(-0.4415815 0.07944236 -0.0001813241)
(-0.4449953 0.003432435 -0.005757512)
(-0.4419887 0.02048109 -0.003069417)
(-0.4373259 0.03421367 0.0001662673)
(-0.4362379 0.04787116 6.989286e-05)
(-0.4325342 0.061235 -0.0001079336)
(-0.4283788 0.07425634 -0.0001686203)
(-0.4313504 0.003197495 -0.005626074)
(-0.4285314 0.0191146 -0.002975565)
(-0.4241025 0.03194581 0.0001766555)
(-0.4231768 0.04472066 8.397575e-05)
(-0.4197633 0.05724685 -9.509733e-05)
(-0.4159621 0.0694781 -0.0001586296)
(-0.4186017 0.002982441 -0.005500672)
(-0.4159523 0.01786021 -0.002885912)
(-0.4117332 0.02985748 0.0001859775)
(-0.4109432 0.04181784 9.82885e-05)
(-0.4077783 0.05356195 -8.308976e-05)
(-0.4042816 0.06505446 -0.0001522306)
(-0.4066757 0.002784407 -0.005380393)
(-0.4041843 0.01669698 -0.002799402)
(-0.400158 0.02792323 0.000195402)
(-0.3994793 0.03912969 0.0001135537)
(-0.3965288 0.0501434 -7.083588e-05)
(-0.3932935 0.06094327 -0.000144646)
(-0.3933201 0.002443416 -0.006197715)
(-0.3931762 0.01563833 -0.002723103)
(-0.3893152 0.026131 0.0002031145)
(-0.3887324 0.03662843 0.0001286606)
(-0.3859685 0.04695712 -5.771937e-05)
(-0.3829598 0.05710401 -0.0001367998)
(-1.266489 0.2800952 -0.01789509)
(-1.068415 0.3985244 -0.01200425)
(-0.9543349 0.4023389 -0.0101829)
(-0.8717308 0.4048386 -0.008457878)
(-0.8046953 0.4053852 -0.00758749)
(-0.7491501 0.4069804 -0.007160331)
(-1.304688 0.04700199 -0.0007091701)
(-1.157469 0.1948887 -0.007494946)
(-1.038275 0.2654609 -0.01528917)
(-0.9469293 0.3057256 -0.01673262)
(-0.8731775 0.3310344 -0.01749983)
(-0.8126716 0.348119 -0.01788979)
(-1.098039 0.042401 0.0004596917)
(-1.01539 0.198726 0.006483642)
(-0.9605317 0.2812401 0.005728357)
(-0.897565 0.3347074 0.006307529)
(-0.841287 0.3717186 0.00659694)
(-0.7896517 0.3965845 0.006636068)
(-0.9848868 0.02489098 0.001080604)
(-0.9477536 0.1232576 0.003980893)
(-0.9056387 0.1892346 0.0006869463)
(-0.8577433 0.2384091 0.0008322259)
(-0.8114076 0.2771421 -2.731095e-05)
(-0.7675704 0.3059458 -0.000135472)
(-0.8991589 0.01983279 0.0009972257)
(-0.8738897 0.1068636 0.00450908)
(-0.8474443 0.1667706 0.00135767)
(-0.8120816 0.2144739 0.001608256)
(-0.7764453 0.2537198 0.00124078)
(-0.7401491 0.2840833 0.001203024)
(-0.8334048 0.01535813 0.0008181304)
(-0.8163555 0.08452898 0.003925958)
(-0.7976152 0.1356208 0.0006566018)
(-0.7708793 0.1791094 0.0008904679)
(-0.7424621 0.2158436 0.0003518076)
(-0.7125552 0.2463212 0.0003434962)
(-0.7794912 0.01268061 0.0006970954)
(-0.7662771 0.07160824 0.003666844)
(-0.7528327 0.116486 0.0005191076)
(-0.731977 0.1561285 0.0007489397)
(-0.7092046 0.1908234 0.0002584248)
(-0.6844674 0.2205792 0.0002739802)
(-0.7336714 0.01074974 0.0006027438)
(-0.7230213 0.06152825 0.003482015)
(-0.7130571 0.1010559 0.0004500682)
(-0.6964691 0.1368735 0.000636449)
(-0.6779886 0.1690189 0.0001366808)
(-0.6573586 0.1973249 0.000125168)
(-0.6939615 0.009292989 0.0005299161)
(-0.685061 0.05380017 0.003312506)
(-0.677443 0.08895533 0.0004196633)
(-0.6639404 0.1214366 0.0005769663)
(-0.6487178 0.1511778 8.608639e-05)
(-0.6313645 0.1779303 5.964579e-05)
(-0.6589761 0.008164944 0.0004725093)
(-0.6513332 0.04770266 0.003169515)
(-0.6453785 0.07922716 0.0004139305)
(-0.6341811 0.108765 0.0005466259)
(-0.6214664 0.1362195 6.605503e-05)
(-0.6067239 0.1613292 2.379777e-05)
(-0.6277874 0.007260437 0.0004261064)
(-0.6210856 0.04273554 0.003041555)
(-0.6163382 0.07120956 0.0004152199)
(-0.606889 0.09817993 0.000523716)
(-0.5961259 0.1235413 6.139448e-05)
(-0.583478 0.1470472 6.62581e-06)
(-0.5997145 0.006518047 0.0003876238)
(-0.5937402 0.03861518 0.002926687)
(-0.5898939 0.06449855 0.0004157819)
(-0.5817958 0.08921817 0.0005048846)
(-0.572573 0.1126793 6.301475e-05)
(-0.5616159 0.1346515 -3.52822e-06)
(-0.5742502 0.005899519 0.0003549305)
(-0.5688558 0.03513293 0.00282014)
(-0.5656952 0.05879117 0.0004163385)
(-0.5586589 0.08153178 0.0004891607)
(-0.5506692 0.1032741 6.452309e-05)
(-0.5410892 0.123806 -8.171021e-06)
(-0.5510066 0.005374224 0.0003265293)
(-0.5460847 0.0321459 0.00272121)
(-0.5434568 0.05387161 0.0004166676)
(-0.5372674 0.07486074 0.0004765157)
(-0.530277 0.09504908 6.539969e-05)
(-0.5218288 0.114243 -8.683191e-06)
(-0.5296802 0.004921375 0.0003015371)
(-0.5251511 0.0295508 0.00262796)
(-0.5229433 0.04958113 0.0004176225)
(-0.5174397 0.06901114 0.0004648303)
(-0.5112669 0.08779103 6.468541e-05)
(-0.5037575 0.1057469 -7.230387e-06)
(-0.5100294 0.00452656 0.0002794291)
(-0.5058315 0.02727088 0.002541114)
(-0.5039604 0.0458007 0.000417513)
(-0.4990191 0.06383453 0.0004541712)
(-0.4935229 0.08133361 6.427799e-05)
(-0.4867978 0.09814581 -3.138361e-06)
(-0.4918579 0.004178601 0.0002596848)
(-0.4879434 0.02524805 0.002459906)
(-0.486345 0.04243829 0.0004169487)
(-0.4818709 0.05921387 0.0004439931)
(-0.4769385 0.07554534 6.425387e-05)
(-0.4708758 0.09129979 -5.640976e-07)
(-0.4750051 0.003869133 0.0002417798)
(-0.4713359 0.02343788 0.002384181)
(-0.4699611 0.03942302 0.0004160031)
(-0.4658789 0.0550576 0.0004349055)
(-0.4614206 0.07032039 6.492084e-05)
(-0.4559207 0.08509535 -3.02704e-07)
(-0.4593375 0.003591564 0.0002259924)
(-0.4558828 0.02180529 0.002313122)
(-0.4546931 0.03669845 0.000414604)
(-0.4509427 0.05129215 0.0004280168)
(-0.446886 0.06557328 6.48682e-05)
(-0.4418677 0.07943776 -1.899939e-06)
(-0.4447425 0.003341127 0.000211667)
(-0.4414774 0.0203226 0.002246928)
(-0.4404426 0.03422007 0.0004133242)
(-0.4369749 0.04785982 0.0004231115)
(-0.4332612 0.06123532 6.470907e-05)
(-0.4286574 0.07425268 -4.465508e-06)
(-0.4311248 0.0031134 0.0001985069)
(-0.4280296 0.0189666 0.002184077)
(-0.4271249 0.03195111 0.0004109955)
(-0.4239006 0.04471216 0.0004186494)
(-0.4204808 0.05724882 6.334645e-05)
(-0.4162343 0.06947516 -7.202127e-06)
(-0.4184042 0.002905618 0.0001864241)
(-0.4154617 0.01771976 0.002124286)
(-0.4146666 0.02986247 0.000407699)
(-0.4116525 0.04180956 0.0004151868)
(-0.4084872 0.05356586 6.372181e-05)
(-0.4045505 0.06505292 -8.474716e-06)
(-0.4065079 0.002715227 0.0001751751)
(-0.4037074 0.0165658 0.002063524)
(-0.4030039 0.02792951 0.0004037001)
(-0.4001738 0.03912183 0.0004115818)
(-0.3972287 0.05014848 6.535963e-05)
(-0.3935623 0.06094058 -1.009978e-05)
(-0.3953788 0.002538477 0.0001654195)
(-0.3927081 0.01549598 0.002012701)
(-0.3920825 0.02613379 0.0004030454)
(-0.389413 0.03661941 0.0004087607)
(-0.3866595 0.04696304 6.798295e-05)
(-0.3832309 0.05710176 -1.134808e-05)
(-1.266867 0.2725539 -0.003322454)
(-1.073862 0.384149 -0.0004582199)
(-0.9577341 0.4053904 -0.000275149)
(-0.875157 0.4208022 0.0001900298)
(-0.8084599 0.4278632 0.0005868043)
(-0.7528162 0.4316433 0.0008058634)
(-1.312235 0.04633946 -0.0005195494)
(-1.162614 0.190816 -0.004524154)
(-1.038973 0.2604663 -0.007610597)
(-0.946939 0.3007644 -0.007778328)
(-0.8734645 0.3265188 -0.008173548)
(-0.8129903 0.3439118 -0.008469517)
(-1.097737 0.04275294 -4.336128e-05)
(-1.014694 0.1995477 -3.570376e-05)
(-0.9572299 0.276874 0.001274243)
(-0.8954372 0.331096 0.002005595)
(-0.8393408 0.3684612 0.002443147)
(-0.7880572 0.3933895 0.002530682)
(-0.9849126 0.02491971 8.672554e-05)
(-0.9478334 0.1224488 -0.0006246153)
(-0.9031044 0.1867868 0.0009525037)
(-0.8565568 0.2368839 0.0006564386)
(-0.8105127 0.2757969 0.0005902704)
(-0.7670631 0.3044564 0.0006445017)
(-0.8990192 0.01974172 3.931626e-05)
(-0.8745228 0.1066677 -0.000955807)
(-0.8450618 0.1653333 3.914127e-05)
(-0.8117049 0.2143371 0.0004034432)
(-0.7757494 0.2529494 0.0006054336)
(-0.739731 0.2834024 0.0007561745)
(-0.8332192 0.01528212 4.477646e-06)
(-0.8172723 0.08467121 -0.0009564141)
(-0.795996 0.1353196 -0.0001294105)
(-0.7704723 0.178659 -0.0001023142)
(-0.7419537 0.2152718 8.478761e-05)
(-0.7122489 0.2456422 0.0002317154)
(-0.7792992 0.01261599 -1.965585e-05)
(-0.767302 0.07180351 -0.001001994)
(-0.7513847 0.1164477 -0.0002818126)
(-0.7316242 0.1560405 -0.0002551087)
(-0.7087566 0.1906432 -7.481053e-05)
(-0.6841723 0.2203396 6.183261e-05)
(-0.7334458 0.01070155 -3.194684e-05)
(-0.7239923 0.06175242 -0.0009643195)
(-0.7117421 0.101136 -0.0003112086)
(-0.6961895 0.1369 -0.0003101723)
(-0.6776158 0.168959 -0.0001638163)
(-0.6571105 0.197204 -5.588805e-05)
(-0.6937022 0.009254168 -3.784367e-05)
(-0.6859897 0.05400656 -0.0009213791)
(-0.6762158 0.08906302 -0.000308926)
(-0.6637044 0.1215095 -0.0003218072)
(-0.6483954 0.1511882 -0.0001956893)
(-0.6311527 0.1778891 -0.0001096761)
(-0.6586823 0.008132873 -3.919058e-05)
(-0.6522105 0.04789195 -0.0008738607)
(-0.6442174 0.0793404 -0.0002894513)
(-0.633975 0.1088546 -0.0003112451)
(-0.6211837 0.1362606 -0.0001993002)
(-0.6065459 0.1613254 -0.0001330631)
(-0.627463 0.007232722 -3.95751e-05)
(-0.6219209 0.04290586 -0.0008305388)
(-0.61523 0.0713165 -0.0002659567)
(-0.6067025 0.09826876 -0.0002944394)
(-0.5958739 0.1235918 -0.0001910348)
(-0.5833275 0.1470612 -0.0001390298)
(-0.5993645 0.006494771 -3.951133e-05)
(-0.5945376 0.03876881 -0.0007904782)
(-0.5888303 0.06459645 -0.0002428678)
(-0.5816238 0.08930238 -0.0002744263)
(-0.5723437 0.1127308 -0.0001772902)
(-0.5614891 0.1346747 -0.0001376463)
(-0.5738814 0.00587815 -3.933054e-05)
(-0.5696187 0.0352722 -0.0007548952)
(-0.5646716 0.0588794 -0.0002213906)
(-0.5584984 0.08160821 -0.0002556017)
(-0.5504568 0.1033214 -0.000163014)
(-0.5409788 0.1238338 -0.000131206)
(-0.550622 0.005354443 -3.914773e-05)
(-0.5468165 0.0322733 -0.0007223076)
(-0.5424692 0.05395133 -0.0002027067)
(-0.5371168 0.07493074 -0.0002380069)
(-0.5300772 0.09509219 -0.0001503398)
(-0.5217312 0.1142713 -0.0001230895)
(-0.529284 0.004902893 -3.898497e-05)
(-0.5258544 0.02966787 -0.0006926661)
(-0.5219891 0.04965351 -0.0001856887)
(-0.5172977 0.0690755 -0.0002224905)
(-0.5110779 0.08783036 -0.0001396035)
(-0.5036689 0.1057742 -0.0001147126)
(-0.5096248 0.004509385 -3.87646e-05)
(-0.5065089 0.02737894 -0.0006653865)
(-0.5030367 0.04586672 -0.0001708251)
(-0.498885 0.06389328 -0.0002082657)
(-0.4933426 0.08136951 -0.0001303454)
(-0.4867168 0.09817165 -0.0001065173)
(-0.4914461 0.004162691 -3.851725e-05)
(-0.4885968 0.02534813 -0.0006403769)
(-0.48545 0.04249866 -0.0001572594)
(-0.4817434 0.05926758 -0.0001954831)
(-0.4767665 0.0755779 -0.0001214393)
(-0.4707999 0.09132326 -9.922863e-05)
(-0.4745882 0.003854136 -3.839439e-05)
(-0.4719674 0.02353077 -0.0006171527)
(-0.4690929 0.03947871 -0.0001454772)
(-0.4657576 0.05510719 -0.0001835028)
(-0.4612555 0.07035075 -0.000113552)
(-0.4558487 0.0851175 -9.282299e-05)
(-0.4589177 0.003577752 -3.799949e-05)
(-0.4564941 0.02189159 -0.0005957822)
(-0.4538502 0.03675005 -0.0001345288)
(-0.4508268 0.05133868 -0.0001730882)
(-0.4467268 0.06560123 -0.0001063243)
(-0.4417983 0.07945831 -8.748948e-05)
(-0.4443199 0.003328096 -3.77356e-05)
(-0.4420702 0.02040306 -0.0005757875)
(-0.4396229 0.03426821 -0.000125035)
(-0.4368639 0.04790289 -0.00016279)
(-0.4331077 0.0612611 -9.992976e-05)
(-0.4285907 0.07427275 -8.221247e-05)
(-0.4307014 0.003100703 -3.762879e-05)
(-0.4286052 0.01904209 -0.000557449)
(-0.4263271 0.03199624 -0.00011611)
(-0.4237935 0.04475321 -0.0001534793)
(-0.4203321 0.05727264 -9.344846e-05)
(-0.4161704 0.06949304 -7.807661e-05)
(-0.417981 0.002892704 -3.737556e-05)
(-0.4160211 0.01779077 -0.0005401775)
(-0.4138887 0.0299044 -0.0001082573)
(-0.4115491 0.04184752 -0.0001444024)
(-0.4083423 0.05358739 -8.857509e-05)
(-0.4044895 0.06506996 -7.432587e-05)
(-0.406087 0.002701505 -3.69792e-05)
(-0.40425 0.01663108 -0.000524102)
(-0.402245 0.02796713 -0.0001003009)
(-0.400073 0.03915602 -0.0001364211)
(-0.3970878 0.05016781 -8.238504e-05)
(-0.3935035 0.06095526 -7.053363e-05)
(-0.3949608 0.002524857 -3.676331e-05)
(-0.3932345 0.01555264 -0.0005066636)
(-0.3913418 0.02616558 -9.176189e-05)
(-0.3893155 0.03664974 -0.0001268568)
(-0.3865225 0.0469802 -7.478605e-05)
(-0.3831706 0.05711441 -6.622975e-05)
(-1.266589 0.2675898 -0.0007007949)
(-1.074946 0.3826336 -0.0002233311)
(-0.9582588 0.3960952 -0.0002438921)
(-0.8752134 0.4050768 -0.000223438)
(-0.8079942 0.408048 -0.0002575986)
(-0.7519717 0.4097576 -0.0003436659)
(-1.31431 0.04585919 -0.0002239391)
(-1.164639 0.1914608 -0.001083204)
(-1.040682 0.2600393 -0.002585891)
(-0.9472251 0.2994301 -0.002769578)
(-0.873758 0.3247847 -0.002963686)
(-0.8130899 0.3420365 -0.003059484)
(-1.097103 0.04203127 5.120947e-05)
(-1.01511 0.19804 0.0004532697)
(-0.9576269 0.2729292 -5.709323e-05)
(-0.8955749 0.3292437 0.0001004052)
(-0.8393488 0.3677512 0.0001477229)
(-0.7878754 0.3929922 0.000186592)
(-0.9836177 0.02517692 0.0001789805)
(-0.9470035 0.121838 0.00117765)
(-0.9036506 0.1859773 0.0007472967)
(-0.8570384 0.2361214 0.0003810668)
(-0.8106712 0.2755297 6.46331e-05)
(-0.7670326 0.304254 2.732002e-05)
(-0.8977336 0.01968572 0.0001825614)
(-0.8738019 0.1054701 0.0008290874)
(-0.8456912 0.1653895 0.0005024896)
(-0.8119205 0.2141693 0.0004837636)
(-0.7760689 0.2531103 0.0002857695)
(-0.7398802 0.2836104 0.0002246856)
(-0.8320837 0.01522063 0.0001581746)
(-0.8167936 0.08445103 0.0009525814)
(-0.7965037 0.1351216 0.000413668)
(-0.7706517 0.1784665 0.0003386967)
(-0.7421846 0.2151225 0.0001689503)
(-0.7123492 0.2455052 0.0001323777)
(-0.778283 0.01257189 0.000137497)
(-0.7668666 0.07164177 0.0008464245)
(-0.751842 0.1163687 0.0003524779)
(-0.7317764 0.155967 0.0002858189)
(-0.7089594 0.1905954 0.0001420412)
(-0.6842664 0.2202966 0.0001159017)
(-0.7324941 0.01066855 0.0001261061)
(-0.7235885 0.06165181 0.0007863374)
(-0.7121801 0.1010937 0.0003175267)
(-0.6963399 0.136858 0.0002518466)
(-0.6778158 0.1689252 0.0001148806)
(-0.6572038 0.1971643 8.888605e-05)
(-0.6928037 0.009227711 0.0001176706)
(-0.6856103 0.05392813 0.000738665)
(-0.676636 0.08903851 0.0002926576)
(-0.663853 0.1214862 0.000227135)
(-0.6485899 0.1511725 9.679778e-05)
(-0.6312451 0.1778672 7.211905e-05)
(-0.6578361 0.008111274 0.0001117251)
(-0.6518492 0.04782835 0.0007014165)
(-0.644621 0.07932731 0.0002764806)
(-0.6341217 0.1088429 0.0002114894)
(-0.6213741 0.1362558 8.566546e-05)
(-0.6066361 0.1613153 6.152172e-05)
(-0.6266597 0.007214491 0.0001072242)
(-0.6215749 0.04285087 0.0006689915)
(-0.6156176 0.07130831 0.0002645434)
(-0.6068467 0.09826216 0.0002002045)
(-0.5960582 0.1235927 7.957748e-05)
(-0.5834166 0.1470572 5.372361e-05)
(-0.5985984 0.006478975 0.0001034722)
(-0.5942044 0.03872036 0.0006405726)
(-0.589203 0.06459079 0.000254123)
(-0.581765 0.08929952 0.0001906395)
(-0.5725236 0.1127349 7.487402e-05)
(-0.561575 0.1346744 4.947575e-05)
(-0.5731484 0.005864009 0.0001000585)
(-0.569297 0.03522858 0.0006149594)
(-0.5650301 0.05887515 0.0002454743)
(-0.5586367 0.08160679 0.0001823207)
(-0.5506307 0.103326 7.127999e-05)
(-0.541064 0.1238349 4.663934e-05)
(-0.5499204 0.005341595 9.691828e-05)
(-0.5465051 0.0322338 0.0005919643)
(-0.5428144 0.05394786 0.0002375792)
(-0.5372517 0.0749305 0.0001759777)
(-0.5302462 0.09509719 6.85946e-05)
(-0.5218141 0.1142738 4.490934e-05)
(-0.5286121 0.004891138 9.364503e-05)
(-0.5255524 0.02963162 0.000570787)
(-0.5223218 0.04965044 0.0002308028)
(-0.5174299 0.06907557 0.0001700348)
(-0.5112416 0.08783542 6.631111e-05)
(-0.5037513 0.1057777 4.315616e-05)
(-0.5089802 0.004498678 9.059235e-05)
(-0.5062156 0.02734545 0.0005513874)
(-0.503358 0.04586388 0.0002241933)
(-0.4990142 0.06389382 0.000165482)
(-0.4935015 0.08137452 6.497424e-05)
(-0.4867966 0.09817444 4.254498e-05)
(-0.4908267 0.004152996 8.778114e-05)
(-0.4883118 0.02531713 0.0005332482)
(-0.4857605 0.04249599 0.0002182777)
(-0.4818698 0.05926817 0.0001606496)
(-0.4769205 0.07558283 6.352616e-05)
(-0.4708789 0.09132647 4.122266e-05)
(-0.473992 0.003845162 8.523239e-05)
(-0.4716902 0.02350193 0.0005165336)
(-0.4693932 0.03947622 0.0002124963)
(-0.4658812 0.05510839 0.0001561172)
(-0.461406 0.07035559 6.180205e-05)
(-0.4559257 0.08511901 4.039247e-05)
(-0.458343 0.003569334 8.283269e-05)
(-0.4562243 0.02186488 0.000500887)
(-0.454141 0.03674771 0.0002072526)
(-0.4509478 0.05133974 0.0001519651)
(-0.4468741 0.06560593 6.02343e-05)
(-0.4418744 0.07946049 3.885177e-05)
(-0.4437658 0.003320189 8.056365e-05)
(-0.4418077 0.02037814 0.0004863154)
(-0.439905 0.03426584 0.0002019065)
(-0.4369825 0.04790477 0.0001481374)
(-0.4332519 0.06126559 5.815303e-05)
(-0.4286649 0.07427323 3.663819e-05)
(-0.4301669 0.003093274 7.818802e-05)
(-0.4283498 0.01901871 0.0004724464)
(-0.4266013 0.03199365 0.0001966529)
(-0.4239098 0.04475423 0.0001439321)
(-0.4204735 0.05727684 5.607058e-05)
(-0.4162434 0.06949403 3.440422e-05)
(-0.4174653 0.002885694 7.61625e-05)
(-0.4157728 0.01776796 0.0004591815)
(-0.4141553 0.02990126 0.0001906249)
(-0.4116629 0.04184884 0.0001393308)
(-0.4084817 0.05359233 5.335158e-05)
(-0.4045615 0.06506903 3.262783e-05)
(-0.4055894 0.002694811 7.414326e-05)
(-0.4040079 0.01660872 0.0004455284)
(-0.4025047 0.02796366 0.0001838228)
(-0.4001841 0.03915674 0.0001336595)
(-0.3972246 0.05017352 4.995546e-05)
(-0.3935754 0.06095465 3.051432e-05)
(-0.3944795 0.002518671 7.246533e-05)
(-0.3929975 0.01553086 0.00043258)
(-0.3915941 0.02616339 0.0001758235)
(-0.3894231 0.03665158 0.0001254212)
(-0.3866584 0.04698964 4.260965e-05)
(-0.3832476 0.05711343 2.626655e-05)
(-1.266405 0.2683236 0.000166065)
(-1.074361 0.3851588 -3.611578e-05)
(-0.9585229 0.4012236 -0.0001706025)
(-0.8756987 0.4100194 -0.0002199442)
(-0.8085263 0.4130942 -0.0002292283)
(-0.7526606 0.4157487 -0.000255045)
(-1.314473 0.045771 -1.476079e-05)
(-1.164642 0.1914622 0.001086989)
(-1.040681 0.2600377 0.002586803)
(-0.947226 0.2994276 0.002769642)
(-0.8737566 0.3247824 0.002964128)
(-0.8130873 0.3420362 0.003061282)
(-1.097062 0.04192386 2.461502e-05)
(-1.015111 0.1980397 -0.0004527333)
(-0.9576274 0.2729279 5.759368e-05)
(-0.8955755 0.3292438 -9.978416e-05)
(-0.8393491 0.3677509 -0.0001475084)
(-0.7878759 0.3929925 -0.0001870111)
(-0.9834785 0.02518804 -1.412307e-05)
(-0.9470033 0.1218378 -0.001176909)
(-0.9036509 0.1859768 -0.0007468156)
(-0.8570388 0.2361212 -0.0003807147)
(-0.8106715 0.2755295 -6.43625e-05)
(-0.767033 0.3042542 -2.750096e-05)
(-0.8975894 0.01967933 -2.596324e-05)
(-0.8738019 0.10547 -0.0008288326)
(-0.8456913 0.1653894 -0.000502358)
(-0.8119206 0.2141693 -0.0004835553)
(-0.7760691 0.2531103 -0.0002856257)
(-0.7398801 0.2836105 -0.0002247509)
(-0.831958 0.0152037 -2.41491e-05)
(-0.8167934 0.08445096 -0.0009525898)
(-0.7965036 0.1351214 -0.0004136745)
(-0.7706518 0.1784665 -0.0003385384)
(-0.7421845 0.2151226 -0.0001688523)
(-0.7123494 0.245505 -0.0001321905)
(-0.778181 0.01256508 -2.014666e-05)
(-0.7668665 0.07164175 -0.0008465484)
(-0.751842 0.1163687 -0.0003526125)
(-0.7317764 0.1559671 -0.0002857311)
(-0.7089597 0.1905952 -0.0001418518)
(-0.6842662 0.2202967 -0.0001160459)
(-0.732401 0.01066379 -1.795931e-05)
(-0.7235885 0.06165174 -0.0007864544)
(-0.71218 0.1010937 -0.000317655)
(-0.6963401 0.136858 -0.0002517614)
(-0.6778155 0.1689253 -0.0001148481)
(-0.6572041 0.1971642 -8.861253e-05)
(-0.6927172 0.009223994 -1.633797e-05)
(-0.6856099 0.05392811 -0.0007387862)
(-0.6766361 0.08903853 -0.0002928244)
(-0.6638529 0.1214862 -0.0002270845)
(-0.6485902 0.1511724 -9.648735e-05)
(-0.6312448 0.1778673 -7.225828e-05)
(-0.6577544 0.008108391 -1.532409e-05)
(-0.6518491 0.04782837 -0.0007015876)
(-0.6446209 0.07932742 -0.0002766804)
(-0.6341219 0.1088429 -0.0002113749)
(-0.6213737 0.1362558 -8.563518e-05)
(-0.6066364 0.1613152 -6.105313e-05)
(-0.6265816 0.007212027 -1.493004e-05)
(-0.6215748 0.0428509 -0.0006691734)
(-0.6156176 0.07130824 -0.0002647188)
(-0.6068467 0.09826202 -0.0002001022)
(-0.5960585 0.1235927 -7.918884e-05)
(-0.5834162 0.1470572 -5.376677e-05)
(-0.5985233 0.006476739 -1.438724e-05)
(-0.5942043 0.03872036 -0.0006407845)
(-0.589203 0.06459083 -0.0002543132)
(-0.5817653 0.08929949 -0.0001904368)
(-0.5725233 0.1127348 -7.47762e-05)
(-0.5615754 0.1346743 -4.883388e-05)
(-0.5730761 0.005861917 -1.391275e-05)
(-0.569297 0.03522854 -0.0006151599)
(-0.5650302 0.05887499 -0.0002456661)
(-0.5586366 0.08160675 -0.0001822069)
(-0.550631 0.1033259 -7.079606e-05)
(-0.5410637 0.1238348 -4.653661e-05)
(-0.5498502 0.005339569 -1.353249e-05)
(-0.5465051 0.03223382 -0.0005921635)
(-0.5428144 0.05394783 -0.0002377151)
(-0.537252 0.07493047 -0.0001757204)
(-0.5302459 0.0950971 -6.837241e-05)
(-0.5218145 0.1142738 -4.408048e-05)
(-0.528544 0.004889347 -1.317044e-05)
(-0.5255524 0.02963159 -0.0005709667)
(-0.5223219 0.04965037 -0.0002310442)
(-0.5174299 0.06907553 -0.0001699149)
(-0.5112419 0.08783542 -6.575057e-05)
(-0.5037509 0.1057776 -4.282563e-05)
(-0.5089145 0.00449705 -1.279993e-05)
(-0.5062157 0.02734543 -0.0005515848)
(-0.503358 0.0458638 -0.0002243737)
(-0.4990143 0.06389379 -0.0001652747)