/*--------------------------------*- C++ -*----------------------------------*\
  =========                 |
  \\      /  F ield         | OpenFOAM: The Open Source CFD Toolbox
   \\    /   O peration     | Website:  https://openfoam.org
    \\  /    A nd           | Version:  7
     \\/     M anipulation  |
\*---------------------------------------------------------------------------*/
FoamFile
{
    version     2.0;
    format      ascii;
    class       volScalarField;
    location    "0.09";
    object      epsilon;
}
// * * * * * * * * * * * * * * * * * * * * * * * * * * * * * * * * * * * * * //

dimensions      [0 2 -3 0 0 0 0];

internalField   nonuniform List<scalar> 
109978
(
0.001904317
0.00195713
0.001961722
0.001962165
0.001962012
0.001961302
0.001957427
0.002059907
0.002070048
0.002071221
0.002071026
0.002069971
0.001962186
0.002070294
0.002081957
0.002083485
0.002083316
0.002082084
0.001962791
0.002071729
0.002083789
0.002085468
0.002085323
0.002084022
0.001963003
0.002072133
0.002084312
0.002086062
0.002085934
0.002084614
0.001963163
0.002072368
0.002084587
0.002086363
0.002086249
0.002084922
0.001963332
0.002072571
0.002084814
0.002086603
0.002086491
0.00208516
0.00196352
0.002072789
0.002085039
0.002086829
0.002086721
0.002085389
0.001963731
0.002073028
0.002085283
0.002087074
0.002086965
0.002085632
0.001963966
0.002073293
0.002085551
0.002087341
0.002087232
0.002085898
0.001964227
0.002073586
0.002085847
0.002087636
0.002087527
0.002086189
0.001964514
0.002073908
0.002086172
0.002087961
0.00208785
0.002086509
0.001964827
0.002074262
0.002086528
0.002088315
0.002088202
0.002086855
0.001965169
0.002074647
0.002086917
0.002088702
0.002088585
0.002087228
0.001965539
0.002075065
0.002087337
0.002089121
0.002088999
0.002087634
0.001965939
0.002075516
0.002087792
0.002089572
0.002089442
0.002088072
0.001966369
0.002076002
0.00208828
0.002090057
0.002089916
0.002088546
0.001966831
0.002076523
0.002088801
0.002090572
0.002090423
0.002089057
0.001967325
0.002077074
0.002089348
0.002091109
0.002090948
0.002089596
0.001967844
0.002077638
0.002089895
0.002091637
0.002091465
0.002090126
0.001968352
0.002078131
0.002090332
0.002092037
0.002091856
0.00209052
0.001968696
0.002078278
0.002090326
0.002091955
0.002091774
0.002090478
0.01060706
0.002077837
0.00208964
0.00209116
0.002091027
0.002089896
0.002089022
0.002091088
0.002090784
0.002090622
0.002090487
0.002090232
0.01061235
0.01060598
0.01060592
0.01060591
0.0106059
0.01060588
0.01061174
0.01060588
0.01060586
0.01060585
0.01060584
0.01060583
0.01061176
0.01060591
0.01060588
0.01060587
0.01060587
0.01060586
0.0106118
0.01060594
0.01060592
0.01060591
0.01060591
0.01060591
0.01061187
0.01060597
0.01060596
0.01060596
0.01060596
0.01060596
0.01061194
0.01060601
0.010606
0.01060601
0.01060602
0.01060602
0.01061203
0.01060606
0.01060605
0.01060606
0.01060607
0.01060609
0.01061213
0.01060611
0.01060611
0.01060612
0.01060614
0.01060615
0.01061224
0.01060617
0.01060617
0.01060619
0.01060621
0.01060623
0.01061236
0.01060623
0.01060624
0.01060626
0.01060629
0.01060631
0.0106125
0.0106063
0.01060631
0.01060634
0.01060637
0.0106064
0.01061265
0.01060637
0.01060639
0.01060642
0.01060646
0.01060649
0.01061282
0.01060645
0.01060648
0.01060651
0.01060656
0.01060659
0.010613
0.01060654
0.01060657
0.01060661
0.01060666
0.0106067
0.01061319
0.01060664
0.01060667
0.01060672
0.01060677
0.01060682
0.0106134
0.01060674
0.01060678
0.01060683
0.01060689
0.01060694
0.01061363
0.01060685
0.0106069
0.01060695
0.01060702
0.01060707
0.01061387
0.01060697
0.01060702
0.01060709
0.01060715
0.01060721
0.01061413
0.0106071
0.01060716
0.01060723
0.0106073
0.01060736
0.01061441
0.01060724
0.0106073
0.01060738
0.01060746
0.01060752
0.0106147
0.01060739
0.01060745
0.01060754
0.01060762
0.0106077
0.01061502
0.01060755
0.01060762
0.01060771
0.0106078
0.01060788
0.01061551
0.01060772
0.0106078
0.01060789
0.01060799
0.01060807
0.002085753
0.002090807
0.002090232
0.002089886
0.002089757
0.002089639
0.01061172
0.01060586
0.01060582
0.01060581
0.0106058
0.01060578
0.01061097
0.01060581
0.0106058
0.01060578
0.01060576
0.01060575
0.01061101
0.01060586
0.01060584
0.01060582
0.0106058
0.01060579
0.01061104
0.01060589
0.01060588
0.01060586
0.01060585
0.01060584
0.0106111
0.01060593
0.01060592
0.01060591
0.01060589
0.01060589
0.01061117
0.01060597
0.01060597
0.01060595
0.01060595
0.01060595
0.01061125
0.01060601
0.01060602
0.01060601
0.01060601
0.01060601
0.01061134
0.01060606
0.01060607
0.01060607
0.01060607
0.01060608
0.01061144
0.01060612
0.01060613
0.01060613
0.01060614
0.01060615
0.01061155
0.01060618
0.0106062
0.01060621
0.01060622
0.01060623
0.01061168
0.01060625
0.01060627
0.01060628
0.0106063
0.01060632
0.01061181
0.01060632
0.01060635
0.01060637
0.01060639
0.01060641
0.01061197
0.01060641
0.01060644
0.01060646
0.01060649
0.01060652
0.01061213
0.01060649
0.01060653
0.01060656
0.01060659
0.01060662
0.01061231
0.01060659
0.01060663
0.01060666
0.0106067
0.01060674
0.0106125
0.01060669
0.01060674
0.01060678
0.01060682
0.01060686
0.01061271
0.0106068
0.01060686
0.0106069
0.01060695
0.01060699
0.01061293
0.01060692
0.01060699
0.01060703
0.01060708
0.01060713
0.01061317
0.01060705
0.01060712
0.01060717
0.01060723
0.01060728
0.01061343
0.01060719
0.01060726
0.01060732
0.01060738
0.01060744
0.0106137
0.01060733
0.01060742
0.01060748
0.01060755
0.01060761
0.01061399
0.01060749
0.01060758
0.01060765
0.01060772
0.01060779
0.0106143
0.01060766
0.01060776
0.01060783
0.01060791
0.01060799
0.002085307
0.00209027
0.002089552
0.002089148
0.002088973
0.002088904
0.01061175
0.01060584
0.01060581
0.0106058
0.01060579
0.01060578
0.01061098
0.01060579
0.01060579
0.01060578
0.01060576
0.01060575
0.01061101
0.01060583
0.01060582
0.01060581
0.0106058
0.01060579
0.01061104
0.01060586
0.01060586
0.01060586
0.01060585
0.01060584
0.01061111
0.0106059
0.0106059
0.0106059
0.0106059
0.01060589
0.01061117
0.01060593
0.01060595
0.01060595
0.01060595
0.01060595
0.01061125
0.01060598
0.010606
0.01060601
0.01060601
0.01060601
0.01061134
0.01060603
0.01060605
0.01060607
0.01060607
0.01060608
0.01061144
0.01060609
0.01060612
0.01060613
0.01060614
0.01060615
0.01061155
0.01060615
0.01060618
0.0106062
0.01060622
0.01060623
0.01061168
0.01060621
0.01060625
0.01060628
0.0106063
0.01060632
0.01061182
0.01060629
0.01060633
0.01060637
0.01060639
0.01060642
0.01061197
0.01060637
0.01060642
0.01060646
0.01060649
0.01060652
0.01061213
0.01060646
0.01060651
0.01060656
0.01060659
0.01060662
0.01061231
0.01060655
0.01060661
0.01060666
0.0106067
0.01060674
0.01061251
0.01060665
0.01060672
0.01060678
0.01060682
0.01060686
0.01061271
0.01060676
0.01060684
0.0106069
0.01060695
0.01060699
0.01061294
0.01060688
0.01060696
0.01060703
0.01060708
0.01060713
0.01061317
0.01060701
0.0106071
0.01060717
0.01060723
0.01060728
0.01061343
0.01060715
0.01060724
0.01060732
0.01060738
0.01060744
0.0106137
0.01060729
0.01060739
0.01060748
0.01060755
0.01060761
0.010614
0.01060745
0.01060756
0.01060765
0.01060772
0.0106078
0.01061431
0.01060762
0.01060773
0.01060783
0.01060791
0.01060799
0.002085153
0.002090058
0.002089333
0.002088879
0.002088702
0.002088652
0.01061175
0.01060583
0.0106058
0.0106058
0.01060579
0.01060577
0.01061097
0.01060578
0.01060578
0.01060577
0.01060576
0.01060575
0.010611
0.01060581
0.01060581
0.01060581
0.0106058
0.01060579
0.01061103
0.01060584
0.01060585
0.01060585
0.01060585
0.01060584
0.01061109
0.01060587
0.01060588
0.01060589
0.01060589
0.01060589
0.01061115
0.01060591
0.01060593
0.01060594
0.01060595
0.01060595
0.01061123
0.01060595
0.01060598
0.010606
0.01060601
0.01060601
0.01061132
0.010606
0.01060603
0.01060606
0.01060607
0.01060608
0.01061142
0.01060606
0.01060609
0.01060612
0.01060614
0.01060615
0.01061154
0.01060612
0.01060616
0.01060619
0.01060622
0.01060624
0.01061166
0.01060619
0.01060623
0.01060627
0.0106063
0.01060632
0.0106118
0.01060626
0.01060631
0.01060635
0.01060639
0.01060642
0.01061195
0.01060634
0.0106064
0.01060645
0.01060648
0.01060652
0.01061212
0.01060643
0.01060649
0.01060654
0.01060659
0.01060662
0.01061229
0.01060652
0.01060659
0.01060665
0.0106067
0.01060674
0.01061249
0.01060663
0.0106067
0.01060676
0.01060682
0.01060686
0.01061269
0.01060673
0.01060681
0.01060688
0.01060694
0.01060699
0.01061292
0.01060685
0.01060694
0.01060701
0.01060708
0.01060714
0.01061315
0.01060698
0.01060707
0.01060715
0.01060722
0.01060729
0.01061341
0.01060712
0.01060722
0.0106073
0.01060738
0.01060744
0.01061368
0.01060726
0.01060737
0.01060746
0.01060754
0.01060762
0.01061398
0.01060742
0.01060753
0.01060763
0.01060772
0.0106078
0.01061429
0.01060759
0.01060771
0.01060782
0.01060791
0.01060799
0.002085167
0.002090108
0.002089281
0.002088853
0.00208867
0.002088624
0.01061175
0.01060583
0.0106058
0.0106058
0.01060579
0.01060577
0.01061097
0.01060578
0.01060578
0.01060577
0.01060576
0.01060575
0.010611
0.01060581
0.01060581
0.01060581
0.0106058
0.01060579
0.01061103
0.01060584
0.01060585
0.01060585
0.01060585
0.01060584
0.01061109
0.01060587
0.01060588
0.01060589
0.01060589
0.01060589
0.01061115
0.01060591
0.01060593
0.01060594
0.01060595
0.01060595
0.01061123
0.01060595
0.01060598
0.010606
0.01060601
0.01060601
0.01061132
0.010606
0.01060603
0.01060606
0.01060607
0.01060608
0.01061142
0.01060606
0.01060609
0.01060612
0.01060614
0.01060615
0.01061154
0.01060612
0.01060616
0.01060619
0.01060622
0.01060624
0.01061166
0.01060619
0.01060623
0.01060627
0.0106063
0.01060632
0.0106118
0.01060626
0.01060631
0.01060635
0.01060639
0.01060642
0.01061195
0.01060634
0.0106064
0.01060645
0.01060648
0.01060652
0.01061212
0.01060643
0.01060649
0.01060654
0.01060659
0.01060662
0.01061229
0.01060652
0.01060659
0.01060665
0.0106067
0.01060674
0.01061249
0.01060663
0.0106067
0.01060676
0.01060682
0.01060686
0.01061269
0.01060673
0.01060681
0.01060688
0.01060694
0.01060699
0.01061292
0.01060685
0.01060694
0.01060701
0.01060708
0.01060714
0.01061315
0.01060698
0.01060707
0.01060715
0.01060722
0.01060729
0.01061341
0.01060712
0.01060722
0.0106073
0.01060738
0.01060744
0.01061368
0.01060726
0.01060737
0.01060746
0.01060754
0.01060761
0.01061398
0.01060742
0.01060753
0.01060763
0.01060772
0.0106078
0.01061429
0.01060759
0.01060771
0.01060782
0.01060791
0.01060799
0.002085169
0.002090163
0.002089359
0.002088996
0.002088824
0.002088775
0.01061176
0.01060584
0.01060581
0.0106058
0.01060579
0.01060578
0.01061098
0.01060579
0.01060579
0.01060578
0.01060576
0.01060575
0.01061102
0.01060583
0.01060582
0.01060581
0.0106058
0.01060579
0.01061104
0.01060585
0.01060586
0.01060585
0.01060585
0.01060584
0.01061111
0.01060589
0.0106059
0.0106059
0.01060589
0.01060589
0.01061117
0.01060593
0.01060594
0.01060595
0.01060595
0.01060595
0.01061125
0.01060597
0.01060599
0.010606
0.01060601
0.01060601
0.01061134
0.01060602
0.01060605
0.01060606
0.01060607
0.01060608
0.01061144
0.01060608
0.01060611
0.01060613
0.01060614
0.01060615
0.01061155
0.01060614
0.01060618
0.0106062
0.01060622
0.01060623
0.01061168
0.01060621
0.01060625
0.01060628
0.0106063
0.01060632
0.01061182
0.01060628
0.01060633
0.01060636
0.01060639
0.01060641
0.01061197
0.01060636
0.01060641
0.01060645
0.01060648
0.01060652
0.01061213
0.01060645
0.01060651
0.01060655
0.01060659
0.01060662
0.01061231
0.01060655
0.01060661
0.01060666
0.0106067
0.01060674
0.0106125
0.01060665
0.01060672
0.01060677
0.01060682
0.01060686
0.01061271
0.01060676
0.01060683
0.01060689
0.01060694
0.01060699
0.01061293
0.01060688
0.01060696
0.01060702
0.01060708
0.01060713
0.01061317
0.010607
0.01060709
0.01060716
0.01060722
0.01060728
0.01061343
0.01060714
0.01060723
0.01060731
0.01060738
0.01060744
0.0106137
0.01060728
0.01060739
0.01060747
0.01060754
0.01060761
0.010614
0.01060744
0.01060755
0.01060764
0.01060772
0.0106078
0.01061431
0.01060761
0.01060772
0.01060782
0.01060791
0.01060799
0.002085423
0.002090676
0.002090065
0.002089744
0.002089576
0.0020895
0.01061177
0.01060585
0.01060582
0.01060581
0.0106058
0.01060578
0.01061098
0.01060581
0.01060579
0.01060577
0.01060576
0.01060575
0.01061102
0.01060585
0.01060583
0.01060581
0.0106058
0.01060579
0.01061104
0.01060588
0.01060587
0.01060585
0.01060584
0.01060584
0.0106111
0.01060592
0.01060591
0.0106059
0.01060589
0.01060589
0.01061116
0.01060596
0.01060595
0.01060595
0.01060595
0.01060595
0.01061124
0.010606
0.010606
0.010606
0.010606
0.01060601
0.01061133
0.01060605
0.01060606
0.01060606
0.01060607
0.01060608
0.01061143
0.01060611
0.01060612
0.01060613
0.01060614
0.01060615
0.01061155
0.01060617
0.01060619
0.0106062
0.01060621
0.01060623
0.01061167
0.01060624
0.01060626
0.01060628
0.0106063
0.01060632
0.01061181
0.01060631
0.01060634
0.01060636
0.01060639
0.01060641
0.01061196
0.01060639
0.01060643
0.01060645
0.01060648
0.01060652
0.01061213
0.01060648
0.01060652
0.01060655
0.01060659
0.01060662
0.01061231
0.01060657
0.01060662
0.01060666
0.0106067
0.01060674
0.0106125
0.01060668
0.01060673
0.01060677
0.01060682
0.01060686
0.01061271
0.01060679
0.01060685
0.01060689
0.01060694
0.01060699
0.01061293
0.01060691
0.01060697
0.01060702
0.01060708
0.01060713
0.01061317
0.01060703
0.0106071
0.01060716
0.01060722
0.01060728
0.01061342
0.01060717
0.01060725
0.01060731
0.01060738
0.01060744
0.0106137
0.01060732
0.0106074
0.01060747
0.01060754
0.01060761
0.01061399
0.01060748
0.01060757
0.01060764
0.01060772
0.01060779
0.0106143
0.01060764
0.01060774
0.01060782
0.01060791
0.01060799
0.00208425
0.002087382
0.002086951
0.002086712
0.002086576
0.002086396
0.01061193
0.01060596
0.01060591
0.01060591
0.0106059
0.01060588
0.01061116
0.01060586
0.01060585
0.01060584
0.01060584
0.01060583
0.01061122
0.01060589
0.01060587
0.01060587
0.01060587
0.01060586
0.01061124
0.01060591
0.0106059
0.01060591
0.01060591
0.01060591
0.01061131
0.01060595
0.01060594
0.01060595
0.01060596
0.01060596
0.01061138
0.01060598
0.01060599
0.010606
0.01060601
0.01060602
0.01061146
0.01060603
0.01060603
0.01060605
0.01060607
0.01060608
0.01061155
0.01060608
0.01060609
0.01060611
0.01060614
0.01060615
0.01061165
0.01060614
0.01060615
0.01060618
0.01060621
0.01060623
0.01061177
0.0106062
0.01060622
0.01060625
0.01060628
0.01060631
0.0106119
0.01060627
0.01060629
0.01060633
0.01060637
0.0106064
0.01061204
0.01060634
0.01060637
0.01060641
0.01060646
0.01060649
0.01061219
0.01060642
0.01060646
0.01060651
0.01060655
0.01060659
0.01061236
0.01060651
0.01060655
0.0106066
0.01060666
0.0106067
0.01061255
0.01060661
0.01060665
0.01060671
0.01060677
0.01060682
0.01061274
0.01060671
0.01060676
0.01060682
0.01060689
0.01060694
0.01061296
0.01060682
0.01060688
0.01060695
0.01060701
0.01060707
0.01061319
0.01060694
0.010607
0.01060708
0.01060715
0.01060721
0.01061343
0.01060707
0.01060714
0.01060722
0.0106073
0.01060736
0.01061369
0.0106072
0.01060728
0.01060737
0.01060745
0.01060752
0.01061397
0.01060735
0.01060743
0.01060753
0.01060762
0.01060769
0.01061427
0.01060751
0.0106076
0.0106077
0.01060779
0.01060788
0.01061551
0.01060768
0.01060777
0.01060788
0.01060798
0.01060808
0.00580075
0.005901588
0.005903537
0.005902959
0.005901775
0.005900125
0.01063208
0.01060284
0.01060278
0.01060277
0.01060275
0.01060272
0.0106028
0.01063021
0.01060339
0.01060323
0.01060312
0.01060308
0.01060306
0.01060314
0.01063027
0.01060337
0.01060321
0.01060313
0.01060308
0.01060307
0.01060315
0.01063037
0.0106034
0.01060327
0.01060317
0.01060313
0.01060312
0.01060321
0.01063052
0.01060347
0.01060334
0.01060325
0.01060321
0.01060321
0.01060331
0.0106307
0.01060354
0.01060342
0.01060333
0.0106033
0.01060331
0.01060342
0.01063091
0.01060362
0.01060352
0.01060343
0.0106034
0.01060343
0.01060354
0.01063116
0.01060371
0.01060362
0.01060353
0.01060352
0.01060355
0.01060368
0.01063144
0.01060382
0.01060374
0.01060365
0.01060364
0.01060369
0.01060383
0.01063175
0.01060393
0.01060386
0.01060378
0.01060378
0.01060383
0.01060399
0.0106321
0.01060406
0.01060399
0.01060392
0.01060393
0.01060399
0.01060416
0.01063248
0.0106042
0.01060413
0.01060407
0.01060409
0.01060416
0.01060434
0.01063289
0.01060435
0.01060429
0.01060423
0.01060426
0.01060434
0.01060454
0.01063334
0.01060452
0.01060445
0.0106044
0.01060444
0.01060454
0.01060475
0.01063383
0.0106047
0.01060463
0.01060459
0.01060464
0.01060475
0.01060498
0.01063436
0.0106049
0.01060482
0.01060478
0.01060485
0.01060497
0.01060526
0.01063493
0.01060512
0.01060502
0.010605
0.01060507
0.01060521
0.01060553
0.01063553
0.01060536
0.01060524
0.01060522
0.01060531
0.01060548
0.01060579
0.01063618
0.01060561
0.01060548
0.01060547
0.01060557
0.01060579
0.01060608
0.01063688
0.01060588
0.01060573
0.01060573
0.01060584
0.0106061
0.01060638
0.01063761
0.01060618
0.010606
0.010606
0.01060613
0.0106064
0.0106067
0.0106384
0.0106065
0.01060628
0.0106063
0.01060645
0.01060673
0.01060703
0.01063925
0.001968044
0.01060659
0.01060662
0.0106068
0.01060708
0.0106074
0.004080169
0.006561884
0.01063297
0.01061006
0.004049342
0.004204445
0.01063072
0.01060977
0.0106303
0.01060975
0.004209715
0.004212846
0.01062841
0.01060947
0.01063027
0.01060956
0.004214231
0.004213661
0.01062847
0.01060952
0.01063036
0.0106096
0.004214806
0.004214147
0.01062857
0.01060957
0.0106305
0.01060966
0.004215512
0.004214712
0.01062871
0.01060964
0.01063067
0.01060971
0.004216251
0.004215387
0.01062888
0.0106097
0.01063088
0.01060978
0.004217117
0.004216188
0.01062908
0.01060977
0.01063113
0.01060986
0.004218098
0.00421711
0.01062931
0.01060986
0.01063141
0.01060994
0.0042192
0.004218157
0.01062958
0.01060995
0.01063173
0.01061004
0.004220425
0.004219332
0.01062987
0.01061006
0.01063208
0.01061015
0.004221776
0.004220641
0.0106302
0.01061018
0.01063247
0.01061027
0.004223258
0.004222083
0.01063056
0.01061031
0.0106329
0.0106104
0.004224877
0.004223662
0.01063095
0.01061045
0.01063338
0.01061055
0.004226634
0.004225381
0.01063138
0.01061061
0.01063389
0.0106107
0.004228533
0.004227245
0.01063184
0.01061078
0.01063444
0.01061087
0.00423058
0.004229257
0.01063234
0.01061096
0.01063504
0.01061106
0.004232782
0.004231423
0.01063288
0.01061115
0.01063569
0.01061125
0.004235143
0.004233747
0.01063345
0.01061137
0.01063637
0.01061147
0.004237667
0.004236237
0.01063407
0.01061159
0.01063707
0.0106117
0.004240362
0.00423889
0.01063473
0.01061184
0.01063782
0.01061194
0.004243225
0.004241659
0.01063543
0.0106121
0.01063861
0.01061221
0.004246177
0.004244162
0.01063617
0.01061239
0.01063945
0.01061249
0.0042486
0.01047405
0.01063922
0.01061267
0.01063808
0.01060982
0.005815199
0.01062994
0.01060687
0.005881812
0.01062968
0.01060669
0.005883969
0.01062773
0.01060648
0.005883732
0.01062951
0.01060645
0.005884541
0.01062769
0.01060644
0.005884875
0.0106295
0.01060648
0.005884658
0.01062768
0.01060646
0.005884565
0.0106295
0.01060647
0.005884547
0.01062767
0.01060647
0.005884904
0.01062948
0.01060646
0.005884244
0.01062766
0.01060647
0.005884644
0.01062948
0.01060644
0.005884146
0.01062769
0.01060645
0.005883958
0.01062956
0.01060647
0.005881753
0.01062784
0.0106067
0.005815419
0.01063134
0.01060687
0.006561807
0.01063108
0.01061003
0.004080157
0.01060756
0.01063026
0.01060975
0.004049337
0.00420443
0.01060727
0.01063023
0.01060956
0.004209733
0.004212845
0.01060732
0.01063032
0.0106096
0.004214227
0.004213634
0.01060747
0.01063085
0.01060978
0.004216254
0.0042154
0.01060752
0.01063109
0.01060986
0.004217143
0.004216198
0.01060759
0.01063137
0.01060994
0.004218123
0.004217119
0.01060766
0.01063169
0.01061004
0.004219223
0.004218166
0.01060774
0.01063204
0.01061015
0.004220447
0.004219343
0.01060783
0.01063243
0.01061027
0.004221806
0.004220653
0.01060793
0.01063286
0.0106104
0.004223279
0.00422209
0.01060804
0.01063333
0.01061054
0.004224899
0.00422367
0.01060816
0.01063384
0.0106107
0.004226655
0.004225382
0.01060829
0.0106344
0.01061087
0.004228553
0.004227253
0.01060843
0.01063499
0.01061105
0.004230602
0.004229265
0.01060858
0.01063564
0.01061125
0.004232804
0.004231433
0.01060874
0.01063632
0.01061146
0.004235174
0.004233777
0.01060891
0.01063702
0.01061169
0.004237713
0.004236271
0.01060931
0.01063855
0.0106122
0.004243254
0.004241694
0.01060952
0.01063939
0.01061249
0.004246204
0.004244183
0.01061267
0.01063807
0.01061278
0.004248617
0.01047362
0.01060737
0.008413604
0.004052693
0.004216304
0.005800676
0.005903408
0.01061034
0.01061032
0.004218136
0.004224175
0.005901596
0.005906427
0.01061049
0.01061042
0.004221923
0.004224259
0.005903548
0.005905296
0.01061055
0.01061042
0.004221882
0.004223762
0.00590298
0.005904174
0.01061053
0.01061039
0.004221343
0.00422279
0.005901791
0.005902552
0.0106105
0.01061034
0.004220215
0.005900143
0.01061045
0.01061253
0.008535214
0.01061248
0.008549836
0.01061255
0.008556529
0.01061218
0.008557151
0.01061252
0.008559678
0.01061214
0.008559942
0.01061254
0.008561798
0.01061215
0.008561974
0.01061257
0.00856445
0.01061218
0.008564611
0.0106126
0.00856755
0.01061222
0.008567742
0.01061265
0.0085712
0.01061226
0.008571398
0.0106127
0.008575404
0.01061231
0.0085756
0.01061275
0.008580177
0.01061237
0.008580361
0.01061281
0.008585523
0.01061243
0.008585683
0.01061288
0.008591453
0.01061249
0.008591577
0.01061295
0.008597986
0.01061256
0.008598063
0.01061302
0.008605135
0.01061263
0.008605155
0.0106131
0.008612914
0.0106127
0.008612868
0.01061317
0.008621343
0.01061277
0.00862122
0.01061325
0.008630439
0.01061284
0.008630237
0.01061334
0.008640229
0.01061291
0.008639938
0.01061341
0.008650737
0.01061298
0.00865035
0.01061349
0.008661984
0.01061304
0.008661495
0.01061355
0.008674003
0.01061309
0.008673412
0.01061361
0.008686831
0.01061312
0.008686128
0.01061365
0.008700501
0.01061314
0.00869965
0.01061366
0.008714886
0.01061313
0.008713329
0.01059817
0.01059888
0.01059804
0.01059723
0.01059953
0.01059647
0.01059738
0.01059735
0.01059849
0.01059658
0.01059796
0.01059753
0.01059793
0.01059784
0.01059735
0.01059834
0.01060581
0.01060288
0.005903317
0.01061033
0.01061031
0.004052691
0.004216359
0.00590635
0.01061043
0.01061042
0.00421818
0.004224216
0.005905202
0.01061047
0.01061042
0.004221956
0.00422427
0.005904114
0.01061045
0.01061039
0.004221917
0.004223814
0.00590248
0.01061042
0.01061033
0.004221391
0.004222815
0.01061036
0.00422026
0.01060736
0.01063047
0.01060966
0.004214819
0.004214127
0.01060742
0.01063064
0.01060969
0.004215503
0.004214698
0.0106091
0.01063776
0.01061187
0.004240415
0.004238891
0.01060937
0.008558263
0.01060714
0.008244865
0.01061544
0.008533833
0.01061528
0.00824735
0.01060541
0.01060225
0.01061259
0.008555145
0.01061208
0.008552
0.01061253
0.008558992
0.01061209
0.008557736
0.01061254
0.008560874
0.01061211
0.008560065
0.01061257
0.008563279
0.01061211
0.008562253
0.01061261
0.008566105
0.01061215
0.008565069
0.01061266
0.008569478
0.01061219
0.008568362
0.01061272
0.00857336
0.01061223
0.008572202
0.01061278
0.008577788
0.01061227
0.008576599
0.01061285
0.008582773
0.01061232
0.008581568
0.01061293
0.008588318
0.01061238
0.008587115
0.010613
0.008594436
0.01061244
0.008593249
0.01061309
0.008601141
0.0106125
0.008599988
0.01061318
0.008608443
0.01061257
0.008607341
0.01061327
0.008616362
0.01061265
0.008615326
0.01061336
0.008624927
0.01061272
0.008623966
0.01061346
0.008634153
0.0106128
0.008633279
0.01061355
0.008644069
0.01061287
0.008643281
0.01061364
0.0086547
0.01061294
0.008654004
0.01061372
0.008666078
0.010613
0.008665475
0.01061379
0.008678232
0.01061305
0.00867773
0.01061385
0.008691185
0.01061309
0.008690797
0.0106139
0.008704847
0.01061311
0.008704678
0.01061387
0.01029071
0.008718389
0.01060822
0.0105976
0.01059761
0.01059753
0.010599
0.01059722
0.01059707
0.01059879
0.01059711
0.01059784
0.01059763
0.01059815
0.01059851
0.01059856
0.01059592
0.01059856
0.01059795
0.01060732
0.008413352
0.01060936
0.008558244
0.01060711
0.008244584
0.01061545
0.008533932
0.0106153
0.008247486
0.01061253
0.00853535
0.01061245
0.008549892
0.01061259
0.008555199
0.01061211
0.008552054
0.01061255
0.008556582
0.01061215
0.008557182
0.01061253
0.008559097
0.01061212
0.008557723
0.01061252
0.008559758
0.01061211
0.008559993
0.0106126
0.008567564
0.01061222
0.008567777
0.01061266
0.008569516
0.01061223
0.008568398
0.01061265
0.008571231
0.01061223
0.008571429
0.01061272
0.008573392
0.01061227
0.008572235
0.0106127
0.008575427
0.01061228
0.008575626
0.01061278
0.008577819
0.01061232
0.008576628
0.01061275
0.008580199
0.01061234
0.008580386
0.01061285
0.008582802
0.01061237
0.008581596
0.01061281
0.008585544
0.0106124
0.008585704
0.01061292
0.00858835
0.01061243
0.008587142
0.01061295
0.008598011
0.01061256
0.008598085
0.01061309
0.008601169
0.01061256
0.008600017
0.01061302
0.008605159
0.0106126
0.008605178
0.01061318
0.008608475
0.01061263
0.008607372
0.01061317
0.008621357
0.01061277
0.008621248
0.01061336
0.008624956
0.01061278
0.008624001
0.01061349
0.008634185
0.01061286
0.008633315
0.01061333
0.008640263
0.01061289
0.008639966
0.01061355
0.008644103
0.01061294
0.008643316
0.01061341
0.008650766
0.01061295
0.008649628
0.01061365
0.008699833
0.01061314
0.00869977
0.0106139
0.00870488
0.01061319
0.008704838
0.01061366
0.008715005
0.01061311
0.008713332
0.01061387
0.008500103
0.008718571
0.0106082
0.006656189
0.0072611
0.007034522
0.007058961
0.007039948
0.007065341
0.007048296
0.007048462
0.007042026
0.007057275
0.007039342
0.007070976
0.007056747
0.00703119
0.007055282
0.007041427
0.007000819
0.006997377
0.00706148
0.007082391
0.007069204
0.007041573
0.007035375
0.007068637
0.00702862
0.006992494
0.007015893
0.007028495
0.007073241
0.007064656
0.007067393
0.007011058
0.007090491
0.007076453
0.00706513
0.007060259
0.007035347
0.007069559
0.00667198
0.007261451
0.007649153
0.007702845
0.007662689
0.007692536
0.01060795
0.008199292
0.01060643
0.008195478
0.01060854
0.008196089
0.008195952
0.010606
0.01060832
0.008197062
0.01060619
0.008196682
0.01060833
0.008197673
0.008197139
0.0106061
0.01061254
0.008561375
0.01061215
0.008560179
0.01060807
0.008204664
0.01060595
0.008204018
0.01060797
0.008206585
0.01060569
0.008206272
0.01060793
0.008207905
0.0082073
0.01060569
0.01060781
0.008210191
0.01060548
0.008209893
0.01060776
0.008211707
0.008211104
0.01060551
0.01060738
0.008218984
0.01060494
0.008218706
0.0106073
0.008220906
0.008220297
0.01060502
0.01061288
0.008591474
0.01061246
0.008590865
0.010613
0.008594448
0.01061244
0.008592525
0.01060665
0.008232289
0.008231679
0.01060448
0.01060641
0.008236262
0.01060373
0.008235994
0.01060624
0.008238846
0.00823824
0.01060395
0.01060597
0.008243172
0.0106032
0.008242896
0.0106131
0.008612945
0.01061267
0.008612895
0.01061327
0.008616661
0.01061265
0.008615434
0.01060522
0.008253795
0.008253153
0.01060302
0.01060487
0.008258831
0.01060188
0.008258529
0.0106132
0.008630466
0.01061282
0.008630258
0.01061364
0.008653964
0.01061301
0.008653268
0.01061349
0.008661251
0.01061301
0.00866077
0.01061372
0.008665345
0.01061308
0.008664739
0.01061361
0.008686123
0.01061313
0.008685435
0.01061385
0.008690491
0.01061309
0.008690102
0.01059816
0.008327884
0.008327045
0.01059572
0.01059733
0.008335893
0.01059312
0.008335345
0.01059643
0.008341355
0.008340659
0.01059375
0.01059544
0.008349245
0.008348912
0.01059103
0.00686986
0.006999893
0.007046047
0.00708102
0.007045139
0.00707434
0.006992657
0.00702533
0.007066028
0.007069201
0.007014798
0.007014446
0.007048314
0.007074793
0.007084877
0.00703411
0.007057431
0.007073232
0.007085875
0.007076091
0.008553516
0.01061047
0.008575297
0.01060558
0.008588808
0.008565519
0.01061037
0.01060419
0.008571821
0.008582213
0.01060613
0.01060833
0.00858991
0.008569371
0.01061095
0.01060466
0.008571967
0.008580529
0.01060621
0.01060903
0.008588041
0.008567476
0.01061097
0.01060475
0.00857026
0.008578106
0.01060618
0.01060911
0.008585455
0.008565077
0.01061095
0.01060474
0.00856781
0.008575264
0.01060613
0.01060914
0.008582259
0.008562253
0.01061091
0.01060471
0.008564565
0.01060606
0.01060914
0.008561922
0.01061216
0.008562031
0.01061251
0.008563398
0.008562574
0.01061257
0.01061215
0.008564483
0.008564658
0.01061257
0.01061215
0.008566391
0.01061218
0.008565195
0.01061257
0.00867328
0.01061314
0.008672716
0.01061352
0.008677508
0.01061308
0.008677028
0.01061371
0.007044561
0.00702672
0.007048865
0.007081055
0.007069242
0.007061845
0.007061274
0.007071024
0.007047961
0.007034615
0.007070952
0.007040826
0.007089665
0.007091487
0.007023435
0.006989743
0.00702349
0.007040505
0.006914624
0.007035669
0.007078896
0.007554988
0.007329421
0.00744819
0.01061728
0.008193132
0.008142503
0.01062906
0.007624599
0.007635708
0.007572004
0.007673671
0.01060824
0.008183355
0.01060622
0.008194121
0.01060804
0.008195301
0.008194836
0.01060633
0.01060827
0.008196141
0.008195487
0.01060622
0.01060822
0.008196473
0.01060609
0.008195946
0.01060817
0.008197916
0.008197436
0.01060614
0.0106079
0.008205022
0.008204599
0.01060577
0.01060785
0.00820599
0.01060576
0.008205287
0.01060776
0.008208408
0.008207981
0.01060558
0.01060769
0.008209524
0.01060559
0.008208811
0.01060758
0.008212309
0.008211883
0.01060535
0.01060761
0.008213582
0.01060539
0.008212865
0.01060712
0.008221717
0.008221269
0.01060476
0.0106071
0.008223284
0.01060485
0.008222563
0.01060647
0.008233324
0.00823284
0.01060395
0.0106063
0.00823519
0.0106041
0.008234463
0.01060607
0.008239991
0.008239481
0.01060345
0.01060586
0.008242005
0.01060363
0.008241279
0.01060505
0.008255124
0.008254561
0.01060221
0.01060476
0.008257477
0.01060245
0.00825673
0.01060419
0.008266179
0.01060185
0.008265426
0.01059807
0.00832984
0.008329044
0.01059392
0.01059723
0.008333718
0.01059451
0.00833285
0.01059635
0.008343692
0.008342823
0.01059196
0.01059541
0.008347793
0.0105926
0.008346552
0.01064008
0.01047095
0.01064011
0.01061302
0.01061302
0.0104705
0.01028546
0.01060816
0.008508444
0.01060813
0.01059438
0.008354738
0.008353854
0.01059164
0.008553604
0.01061052
0.01060561
0.008576184
0.01060617
0.008572668
0.01060834
0.008583045
0.01060625
0.008572789
0.01060904
0.008581254
0.01060622
0.008571032
0.01060912
0.008578838
0.01060617
0.008568591
0.01060916
0.008575977
0.0106061
0.008565459
0.01060915
0.008572315
0.01060854
0.008196229
0.01060612
0.00819598
0.0106083
0.008195757
0.01060631
0.008195283
0.01060833
0.008197726
0.01060622
0.008197179
0.01060828
0.00819962
0.01060615