/*--------------------------------*- C++ -*----------------------------------*\
  =========                 |
  \\      /  F ield         | OpenFOAM: The Open Source CFD Toolbox
   \\    /   O peration     | Website:  https://openfoam.org
    \\  /    A nd           | Version:  7
     \\/     M anipulation  |
\*---------------------------------------------------------------------------*/
FoamFile
{
    version     2.0;
    format      ascii;
    class       volScalarField;
    location    "0.09";
    object      k;
}
// * * * * * * * * * * * * * * * * * * * * * * * * * * * * * * * * * * * * * //

dimensions      [0 2 -2 0 0 0 0];

internalField   nonuniform List<scalar> 
90967
(
0.003784299
0.003783603
0.003784539
0.003784445
0.003784464
0.003784164
0.003785009
0.003785511
0.003787154
0.003787255
0.003787354
0.003787137
0.00378497
0.003786089
0.00378805
0.003788305
0.003788614
0.003788553
0.003785032
0.003786253
0.003788441
0.003788885
0.003789398
0.003789566
0.00378492
0.003786314
0.003788693
0.003789354
0.003790133
0.003790583
0.003784716
0.003786265
0.003788848
0.003789773
0.003790864
0.003791667
0.003784328
0.003786068
0.00378889
0.003790134
0.003791607
0.003792839
0.003783704
0.003785669
0.003788763
0.003790393
0.003792322
0.003794079
0.003782753
0.003784994
0.003788411
0.003790505
0.003792983
0.003795371
0.003781402
0.003783956
0.003787761
0.003790419
0.003793561
0.003796709
0.003779557
0.003782454
0.003786733
0.003790074
0.003794031
0.003798109
0.003777122
0.003780401
0.003785254
0.00378942
0.003794368
0.003799579
0.003773938
0.003777682
0.003783219
0.00378839
0.003794564
0.003801229
0.003769939
0.003774276
0.003780624
0.003787003
0.003794612
0.003803022
0.003764943
0.003770009
0.003777296
0.003785089
0.003794501
0.003805157
0.003759142
0.003765178
0.003773589
0.003783008
0.003794416
0.003807619
0.003752516
0.003759264
0.003768662
0.003779459
0.003792662
0.003808512
0.003745747
0.00375374
0.003763901
0.003776225
0.003791294
0.003809866
0.003735351
0.003756831
0.003781678
0.003808923
0.003839153
0.003873945
0.00391551
0.003688817
0.003804904
0.003916362
0.004027976
0.004146005
0.004277382
0.004432633
0.00370292
0.003705831
0.003710385
0.003715342
0.003720086
0.003725591
0.003731945
0.003840095
0.003832046
0.003832049
0.003830834
0.003829439
0.003827948
0.003826053
0.003447978
0.003444468
0.003444321
0.003444297
0.003444279
0.003444282
0.003444315
0.003448539
0.003444462
0.003444313
0.003444264
0.003444265
0.003444277
0.003444309
0.003448263
0.003444461
0.003444296
0.003444271
0.003444279
0.003444315
0.003444365
0.003448357
0.003444471
0.003444321
0.003444293
0.003444314
0.003444362
0.003444437
0.00344836
0.003444488
0.00344434
0.003444325
0.003444356
0.003444429
0.00344453
0.00344845
0.003444515
0.003444379
0.003444388
0.003444433
0.00344453
0.003444663
0.003448589
0.003444572
0.003444444
0.003444488
0.003444564
0.003444698
0.003444865
0.003448605
0.003444688
0.00344455
0.003444646
0.00344477
0.003444971
0.003445193
0.003448614
0.003444897
0.003444727
0.003444896
0.003445089
0.003445391
0.003445713
0.003448633
0.003445187
0.003445018
0.003445286
0.00344558
0.003446027
0.003446513
0.003448668
0.003445593
0.003445491
0.003445893
0.003446335
0.003446995
0.003447731
0.003448743
0.003446223
0.003446229
0.003446818
0.003447481
0.003448474
0.003449642
0.003448856
0.003447174
0.003447355
0.003448228
0.003449242
0.003450762
0.0034526
0.003449014
0.003448567
0.003449007
0.003450271
0.003451816
0.003454218
0.003457287
0.003449215
0.003450499
0.003451355
0.003453253
0.003455752
0.003459639
0.003464992
0.003449485
0.003453135
0.003454528
0.003457309
0.003461171
0.003467502
0.003476794
0.003450379
0.0034563
0.003458565
0.003462576
0.003468969
0.003479771
0.003497546
0.003450524
0.003460901
0.003462508
0.003468149
0.003477311
0.003494522
0.003525426
0.003457021
0.003455382
0.003463072
0.003472775
0.003485003
0.003510104
0.003559248
0.003669333
0.003698102
0.003442141
0.00344223
0.003442335
0.003442524
0.003442914
0.003443636
0.003835044
0.003788158
0.003784333
0.003785928
0.003785192
0.003784975
0.003448486
0.003444335
0.003444286
0.003444283
0.003444264
0.003444256
0.003444293
0.003444585
0.003444153
0.003444146
0.003444119
0.00344412
0.00344413
0.003444163
0.003444506
0.003444142
0.00344415
0.003444134
0.003444135
0.003444174
0.00344422
0.003444498
0.00344416
0.003444161
0.003444152
0.003444173
0.003444216
0.003444291
0.003444509
0.003444178
0.003444198
0.003444187
0.003444221
0.003444285
0.003444385
0.003444517
0.003444207
0.003444242
0.00344425
0.003444302
0.003444385
0.003444518
0.003444528
0.003444252
0.00344432
0.003444351
0.003444439
0.003444554
0.003444722
0.003444553
0.003444331
0.003444438
0.00344451
0.003444653
0.003444828
0.003445052
0.003444604
0.003444473
0.003444631
0.003444757
0.00344498
0.003445249
0.003445574
0.003444701
0.003444718
0.003444937
0.003445144
0.003445478
0.003445886
0.003446378
0.003444874
0.003445123
0.003445422
0.003445746
0.003446241
0.003446849
0.003447584
0.003445168
0.003445764
0.003446165
0.003446663
0.003447394
0.003448321
0.003449481
0.003445625
0.003446745
0.003447292
0.003448062
0.003449153
0.003450575
0.003452362
0.003446325
0.003448157
0.003448915
0.003450074
0.003451713
0.00345397
0.003457036
0.003447242
0.003450195
0.003451258
0.003453079
0.003455689
0.003459437
0.003464605
0.003448667
0.003452659
0.003454229
0.003456992
0.003460813
0.003466823
0.003475862
0.003449853
0.003456235
0.003458383
0.003462211
0.003469081
0.003479971
0.003498283
0.003452871
0.003460947
0.003461387
0.003469487
0.003479309
0.003498278
0.003532612
0.003449898
0.003455065
0.003457961
0.003460621
0.00347065
0.003488755
0.0035292
0.003708606
0.003712581
0.003715952
0.003719833
0.003724889
0.003697314
0.003442092
0.003442246
0.003442397
0.003442496
0.003442802
0.00344344
0.003838646
0.003788324
0.003785902
0.003787752
0.003787147
0.003786921
0.003448184
0.003444322
0.003444276
0.003444281
0.003444251
0.003444253
0.00344427
0.003444468
0.003444126
0.003444134
0.003444116
0.00344412
0.003444133
0.003444166
0.003444412
0.003444096
0.003444109
0.003444128
0.003444136
0.003444176
0.003444221
0.003444428
0.003444105
0.003444128
0.003444144
0.00344417
0.003444215
0.003444291
0.003444439
0.003444127
0.003444157
0.003444179
0.003444215
0.003444283
0.003444383
0.003444447
0.003444163
0.003444199
0.003444242
0.003444293
0.003444381
0.003444515
0.00344446
0.003444215
0.003444273
0.003444344
0.003444427
0.003444549
0.003444718
0.00344448
0.003444306
0.003444388
0.003444504
0.003444638
0.003444823
0.003445047
0.003444516
0.00344446
0.003444578
0.003444755
0.003444963
0.003445244
0.00344557
0.003444579
0.003444718
0.003444881
0.003445147
0.003445461
0.003445883
0.003446377
0.003444682
0.003445141
0.003445364
0.003445758
0.003446226
0.003446853
0.003447592
0.003444847
0.003445804
0.003446111
0.00344669
0.003447392
0.003448345
0.003449514
0.003445078
0.003446819
0.003447251
0.003448116
0.003449179
0.003450637
0.003452449
0.003445423
0.003448263
0.003448901
0.003450179
0.003451802
0.003454117
0.003457234
0.003445769
0.00345038
0.003451315
0.003453285
0.00345589
0.003459739
0.003465068
0.00344644
0.003452873
0.003454359
0.003457315
0.00346115
0.003467352
0.003476569
0.003446453
0.003456618
0.00345865
0.003462616
0.003469693
0.003481032
0.0035002
0.003449084
0.003461087
0.003461499
0.003470376
0.003480202
0.003499853
0.003534815
0.003449539
0.003455019
0.003457481
0.003452457
0.003468425
0.003487006
0.003529236
0.003711063
0.003715779
0.003718781
0.003722203
0.003726642
0.003696968
0.003442068
0.003442275
0.003442447
0.003442519
0.003442817
0.003443446
0.00383956
0.003788413
0.003786128
0.003788256
0.003787586
0.003787428
0.003448221
0.00344429
0.003444272
0.003444279
0.00344425
0.00344425
0.003444268
0.00344452
0.003444092
0.003444107
0.003444107
0.003444113
0.003444128
0.003444162
0.003444415
0.003444055
0.003444087
0.003444112
0.003444127
0.003444172
0.003444219
0.003444415
0.003444064
0.003444089
0.003444122
0.003444159
0.003444209
0.003444289
0.003444429
0.003444079
0.003444122
0.003444155
0.003444204
0.003444277
0.003444381
0.003444435
0.003444106
0.003444161
0.003444215
0.003444282
0.003444374
0.003444513
0.003444449
0.00344415
0.003444237
0.003444317
0.003444419
0.003444543
0.003444717
0.003444466
0.003444233
0.003444351
0.003444476
0.003444632
0.003444817
0.003445047
0.003444501
0.003444381
0.003444541
0.003444726
0.00344496
0.003445239
0.003445572
0.003444564
0.003444633
0.003444845
0.003445118
0.003445463
0.00344588
0.003446383
0.003444669
0.003445049
0.003445329
0.003445728
0.003446233
0.003446853
0.003447601
0.003444837
0.003445705
0.003446077
0.003446661
0.003447408
0.003448354
0.003449536
0.003445074
0.003446717
0.00344722
0.003448088
0.003449204
0.003450649
0.003452468
0.003445431
0.003448152
0.003448869
0.003450149
0.003451828
0.003454121
0.003457273
0.003445789
0.003450278
0.003451292
0.00345325
0.003455899
0.003459722
0.003465052
0.003446505
0.003452728
0.003454287
0.003457201
0.003461067
0.003467303
0.003476656
0.003446529
0.003456608
0.003458673
0.003462621
0.003469963
0.003481625
0.003501365
0.003449406
0.003460911
0.003461409
0.00347061
0.003480586
0.00350065
0.003536608
0.003449747
0.003454804
0.003458117
0.003452291
0.003469551
0.003488299
0.003531052
0.003710925
0.003715469
0.003718549
0.003721997
0.003726551
0.003696923
0.003442059
0.003442278
0.003442447
0.003442519
0.00344282
0.003443451
0.003839645
0.003788412
0.003786128
0.003788254
0.003787584
0.003787427
0.003448211
0.00344429
0.003444272
0.003444279
0.00344425
0.00344425
0.003444268
0.00344452
0.003444092
0.003444107
0.003444107
0.003444113
0.003444129
0.003444162
0.003444415
0.003444055
0.003444087
0.003444112
0.003444127
0.003444172
0.003444219
0.003444415
0.003444064
0.003444089
0.003444122
0.003444159
0.003444209
0.003444289
0.003444429
0.003444079
0.003444122
0.003444155
0.003444204
0.003444277
0.003444381
0.003444435
0.003444106
0.003444161
0.003444215
0.003444282
0.003444374
0.003444513
0.003444449
0.00344415
0.003444237
0.003444317
0.003444419
0.003444543
0.003444717
0.003444466
0.003444234
0.003444351
0.003444476
0.003444632
0.003444817
0.003445048
0.003444501
0.003444381
0.003444541
0.003444727
0.00344496
0.003445239
0.003445572
0.003444565
0.003444633
0.003444845
0.003445118
0.003445463
0.00344588
0.003446383
0.00344467
0.003445049
0.003445329
0.003445728
0.003446233
0.003446852
0.003447601
0.003444835
0.003445706
0.003446077
0.003446661
0.003447408
0.003448353
0.003449536
0.003445073
0.003446718
0.00344722
0.003448089
0.003449204
0.003450649
0.003452468
0.00344543
0.003448154
0.003448868
0.00345015
0.003451829
0.003454121
0.003457274
0.003445787
0.003450281
0.003451291
0.00345325
0.003455898
0.003459721
0.003465051
0.003446507
0.003452727
0.003454286
0.0034572
0.003461072
0.003467311
0.003476664
0.003446535
0.00345661
0.003458686
0.003462629
0.003469962
0.003481618
0.003501359
0.003449399
0.003460908
0.003461407
0.003470601
0.003480585
0.00350067
0.003536647
0.003449727
0.003454789
0.003458119
0.003452316
0.003469557
0.003488299
0.003531085
0.003710937
0.003715469
0.003718556
0.003721999
0.003726553
0.003696937
0.003442059
0.003442278
0.003442448
0.00344252
0.00344282
0.003443451
0.003839432
0.003788321
0.003785899
0.003787747
0.003787143
0.003786915
0.003448205
0.003444321
0.003444276
0.003444281
0.003444252
0.003444254
0.00344427
0.003444468
0.003444126
0.003444134
0.003444116
0.00344412
0.003444133
0.003444166
0.003444412
0.003444096
0.003444109
0.003444128
0.003444136
0.003444176
0.003444221
0.003444428
0.003444105
0.003444128
0.003444144
0.00344417
0.003444215
0.003444291
0.003444439
0.003444127
0.003444157
0.003444179
0.003444215
0.003444283
0.003444383
0.003444447
0.003444163
0.003444199
0.003444242
0.003444293
0.003444381
0.003444515
0.00344446
0.003444215
0.003444273
0.003444344
0.003444427
0.003444549
0.003444718
0.003444479
0.003444305
0.003444388
0.003444504
0.003444638
0.003444823
0.003445047
0.003444515
0.00344446
0.003444579
0.003444755
0.003444963
0.003445244
0.00344557
0.003444577
0.003444718
0.003444881
0.003445148
0.003445461
0.003445884
0.003446378
0.003444683
0.00344514
0.003445364
0.003445758
0.003446226
0.003446854
0.003447593
0.003444845
0.0034458
0.003446112
0.00344669
0.003447393
0.003448347
0.003449515
0.003445081
0.003446815
0.003447252
0.003448116
0.00344918
0.003450639
0.00345245
0.003445421
0.00344826
0.003448904
0.003450179
0.003451804
0.003454121
0.003457237
0.003445767
0.003450379
0.003451322
0.003453288
0.003455898
0.00345975
0.003465075
0.003446442
0.003452872
0.003454362
0.003457321
0.003461156
0.00346736
0.003476574
0.003446454
0.003456612
0.003458635
0.003462618
0.003469716
0.003481088
0.003500255
0.003449087
0.003461091
0.003461516
0.003470427
0.003480252
0.003499828
0.003534743
0.003449599
0.003454888
0.003457455
0.003452349
0.003468391
0.003487074
0.003529318
0.00371107
0.00371577
0.003718775
0.003722205
0.00372663
0.003696942
0.003442068
0.003442274
0.003442447
0.003442519
0.003442818
0.003443445
0.003838316
0.003788157
0.003784329
0.003785911
0.003785153
0.003784945
0.003448469
0.003444335
0.003444287
0.003444284
0.003444268
0.003444256
0.003444293
0.003444589
0.003444153
0.003444146
0.003444119
0.003444119
0.003444131
0.003444164
0.003444505
0.003444142
0.00344415
0.003444134
0.003444135
0.003444174
0.00344422
0.003444497
0.00344416
0.003444161
0.003444152
0.003444173
0.003444216
0.003444291
0.003444509
0.003444178
0.003444198
0.003444188
0.003444221
0.003444285
0.003444385
0.003444516
0.003444207
0.003444242
0.00344425
0.003444302
0.003444385
0.003444518
0.003444528
0.003444252
0.00344432
0.003444351
0.003444439
0.003444554
0.003444722
0.003444553
0.003444332
0.003444438
0.00344451
0.003444653
0.003444828
0.003445052
0.003444601
0.003444476
0.003444629
0.003444757
0.00344498
0.003445249
0.003445574
0.0034447
0.003444715
0.003444939
0.003445142
0.003445479
0.003445886
0.003446378
0.003444874
0.003445119
0.003445423
0.003445745
0.003446241
0.003446849
0.003447585
0.003445164
0.003445769
0.003446164
0.003446662
0.003447395
0.003448321
0.003449482
0.003445621
0.003446754
0.003447293
0.003448061
0.003449154
0.003450576
0.003452363
0.003446321
0.003448169
0.003448912
0.003450075
0.003451716
0.003453974
0.003457039
0.00344723
0.003450216
0.003451251
0.003453079
0.003455686
0.003459441
0.003464607
0.003448662
0.003452656
0.003454228
0.003456988
0.00346083
0.003466843
0.00347588
0.003449861
0.003456231
0.003458428
0.003462218
0.003469033
0.00347992
0.003498262
0.003452856
0.003460924
0.003461355
0.003469404
0.003479278
0.00349842
0.003532943
0.003450056
0.003454629
0.003458017
0.003460996
0.003470684
0.003488766
0.003529317
0.003708607
0.003712579
0.003715987
0.003719831
0.003724883
0.003697143
0.003442092
0.003442246
0.003442399
0.003442496
0.003442797
0.003443442
0.003843914
0.003835634
0.003837563
0.003837128
0.003834539
0.00383309
0.003831487
0.003447806
0.003444473
0.003444324
0.003444296
0.00344428
0.003444279
0.003444317
0.003448212
0.003444462
0.003444312
0.003444264
0.003444265
0.003444278
0.003444309
0.003448408
0.003444462
0.003444295
0.003444271
0.003444279
0.003444315
0.003444365
0.003448221
0.003444471
0.003444321
0.003444293
0.003444314
0.003444362
0.003444437
0.003448235
0.003444488
0.003444339
0.003444325
0.003444356
0.003444429
0.00344453
0.00344821
0.003444515
0.003444379
0.003444388
0.003444433
0.00344453
0.003444663
0.003448187
0.003444571
0.003444444
0.003444487
0.003444563
0.003444698
0.003444865
0.003448159
0.003444686
0.003444551
0.003444646
0.00344477
0.003444971
0.003445193
0.003448115
0.003444888
0.00344473
0.003444897
0.00344509
0.003445392
0.003445713
0.003448162
0.003445185
0.00344502
0.003445291
0.00344558
0.00344603
0.003446514
0.003447939
0.003445586
0.003445481
0.003445895
0.003446335
0.003446998
0.003447732
0.003447845
0.003446224
0.003446223
0.003446823
0.003447482
0.003448479
0.003449644
0.003447728
0.003447177
0.003447347
0.003448233
0.003449243
0.003450768
0.003452603
0.003447591
0.003448559
0.003449016
0.003450275
0.003451825
0.003454235
0.0034573
0.003447362
0.003450487
0.003451381
0.003453268
0.003455771
0.003459659
0.003464996
0.003446994
0.003453145
0.003454516
0.003457329
0.0034612
0.003467599
0.003476878
0.003446317
0.003456352
0.003458539
0.003462626
0.003469017
0.003479776
0.003497456
0.00344689
0.003460879
0.003462448
0.003468123
0.003477285
0.003494673
0.003525968
0.003458088
0.003455719
0.003463484
0.003470264
0.003480547
0.00350882
0.003560352
0.003665018
0.003697952
0.003442139
0.003442226
0.003442335
0.003442523
0.003442916
0.003443629
0.003973747
0.00397978
0.003981386
0.003980775
0.003969546
0.003968904
0.003973989
0.003456387
0.003784226
0.003783687
0.003784554
0.003784453
0.003784526
0.003784187
0.003461318
0.003785095
0.003785539
0.003787133
0.003787253
0.003787359
0.003787147
0.003456701
0.00378497
0.003786124
0.003788051
0.003788316
0.003788615
0.003788557
0.003456478
0.003785029
0.003786258
0.003788438
0.003788886
0.003789398
0.003789568
0.003456431
0.003784916
0.003786318
0.003788693
0.003789356
0.003790133
0.003790584
0.003456478
0.003784714
0.003786265
0.003788848
0.003789774
0.003790864
0.003791668
0.003456637
0.003784326
0.003786069
0.00378889
0.003790135
0.003791607
0.00379284
0.003456675
0.003783706
0.00378567
0.003788766
0.003790393
0.003792323
0.003794079
0.003456622
0.003782775
0.003785003
0.003788416
0.003790508
0.003792985
0.003795372
0.003458573
0.003781461
0.003783937
0.003787767
0.003790416
0.003793562
0.00379671
0.00345683
0.003779619
0.003782479
0.003786739
0.003790078
0.003794034
0.003798112
0.003456507
0.003777148
0.003780438
0.003785251
0.003789424
0.00379437
0.003799583
0.003455346
0.003773967
0.003777706
0.00378322
0.003788393
0.003794567
0.003801235
0.003455321
0.003769966
0.00377429
0.003780628
0.003787007
0.003794621
0.003803033
0.003458504
0.003764972
0.003770011
0.003777293
0.003785078
0.003794504
0.003805174
0.003456698
0.003759239
0.003765142
0.003773597
0.003783035
0.003794488
0.003807668
0.003459316
0.003752547
0.003759247
0.00376866
0.003779431
0.003792651
0.00380859
0.003452118
0.003745799
0.00375371
0.003763891
0.00377688
0.003792319
0.003810038
0.003449944
0.003480346
0.003499795
0.003526791
0.003546696
0.003605642
0.003718751
0.003758043
0.003632569
0.003442429
0.003442649
0.00344312
0.0034428
0.0034445
0.003444425
0.003444975
0.003835563
0.003990818
0.003459489
0.003450425
0.003825399
0.003834784
0.003973731
0.004000564
0.003452696
0.003449207
0.003830757
0.003836134
0.003979689
0.004003843
0.003452152
0.003450079
0.00383254
0.003836024
0.003981351
0.004004478
0.003452981
0.003450093
0.003832494
0.00383575
0.003981096
0.004003887
0.003452681
0.003450171
0.003832127
0.003835086
0.003979889
0.004001957
0.003452911
0.003450113
0.003831297
0.00383407
0.003977627
0.003999135
0.00345298
0.003450099
0.003830052
0.003974395
0.003453228
0.003824218
0.003830583
0.003456274
0.003548858
0.003456433
0.003554746
0.00382944
0.003829615
0.003456501
0.003553252
0.003456515
0.003552498
0.003829877
0.003829883
0.003456426
0.003552431
0.003456439
0.003552404
0.003829842
0.003829831
0.003456454
0.00355246
0.003456436
0.003552491
0.003829641
0.003829624
0.003456421
0.003552342
0.00345641
0.0035524
0.003829111
0.003829155
0.003456474
0.003552133
0.003456384
0.003552193
0.003828112
0.003828301
0.003456633
0.003551761
0.003456314
0.003551731
0.00382665
0.003826952
0.003456673
0.003551177
0.003456207
0.003550898
0.003824514
0.003824948
0.003456625
0.003550385
0.003456079
0.003549575
0.003821554
0.003822099
0.003456529
0.003549041
0.003455924
0.003547691
0.003817474
0.003818172
0.003456383
0.003546575
0.003455653
0.003545166
0.003812107
0.003812908
0.003456246
0.003543181
0.003455333
0.003541898
0.003805069
0.003805953
0.003456118
0.003538747
0.003455228
0.00353732
0.003796065
0.003796913
0.003456079
0.00353317
0.003455152
0.003531264
0.003784714
0.003785452
0.003456414
0.003526067
0.00345491
0.003523296
0.003771078
0.003771642
0.003457384
0.003517398
0.003454677
0.003513189
0.0037547
0.003754719
0.003459911
0.003504771
0.003453244
0.003499251
0.003737903
0.003736249
0.003459579
0.003485776
0.003450583
0.003482601
0.003726654
0.00369124
0.003451208
0.003473588
0.003450904
0.003639149
0.003649995
0.003604526
0.003443014
0.003753757
0.003648805
0.003658569
0.003443176
0.003446195
0.003868335
0.003657974
0.003668153
0.003443516
0.003447478
0.003985109
0.003667734
0.003678189
0.003443826
0.003448648
0.004107291
0.003678092
0.00368881
0.003444323
0.003450273
0.004243974
0.0036894
0.003700736
0.003444889
0.003451672
0.00440627
0.0037021
0.003715355
0.003445821
0.003454738
0.00371789
0.003447638
0.003703334
0.003632597
0.003442376
0.003924297
0.003456376
0.003448881
0.003943153
0.003456774
0.003449474
0.003607725
0.003443475
0.003603592
0.003443663
0.003934921
0.00345557
0.003449769
0.003939993
0.00345547
0.003450029
0.003602356
0.003443357
0.00360233
0.003443548
0.003940067
0.003455437
0.003449814
0.003941453
0.003455336
0.00344981
0.003602214
0.003443372
0.003602325
0.003443566
0.003941409
0.003455332
0.003449809
0.003941585
0.003455335
0.003449807
0.003602286
0.003443443
0.003602467
0.003443542
0.003941624
0.003455327
0.003449809
0.003941397
0.003455341
0.003449806
0.003602479
0.003443537
0.003602314
0.003443451
0.003941343
0.003455326
0.003449814
0.003939888
0.003455435
0.003449819
0.003602353
0.003443568
0.00360223
0.003443375
0.003939835
0.003455457
0.003450012
0.003935029
0.003455582
0.003449769
0.003602337
0.003443549
0.003602379
0.003443355
0.0039433
0.003456791
0.003449482
0.003924319
0.003456372
0.003448828
0.003603597
0.003443643
0.003607921
0.00344348
0.00399082
0.003459517
0.003450514
0.003835537
0.004000728
0.0034526
0.003449215
0.003825369
0.00383487
0.00400392
0.003452175
0.003450076
0.003830808
0.003836148
0.004004565
0.003452967
0.003450048
0.003832553
0.00383604
0.004000148
0.003452535
0.0034502
0.003832531
0.003836198
0.003982005
0.003453587
0.003450746
0.003832908
0.003835372
0.003998269
0.003453306
0.003450178
0.003831174
0.003834162
0.003453244
0.003830047
0.003549053
0.003457205
0.003555654
0.003824282
0.003832089
0.003552666
0.003457418
0.003552954
0.003832526
0.003831264
0.003552533
0.003456494
0.003552327
0.003830181
0.003829914
0.00355244
0.003456438
0.003552476
0.003829848
0.003829819
0.003552338
0.003456408
0.003552396
0.003829627
0.00382961
0.003552131
0.003456382
0.00355219
0.003829108
0.003829149
0.003551758
0.003456307
0.003551725
0.003828105
0.003828292
0.003551167
0.003456165
0.003550864
0.003826646
0.003826948
0.003550325
0.003455373
0.003550371
0.00382454
0.003825122
0.003551309
0.003455517
0.003549114
0.003821755
0.003822404
0.003547331
0.003455036
0.0035458
0.003818045
0.003819206
0.003539205
0.003454872
0.003538101
0.003805361
0.003806734
0.00353318
0.003454494
0.003531411
0.003796087
0.003797118
0.003518523
0.003461733
0.003516626
0.003771466
0.003772081
0.003504239
0.003450836
0.003499976
0.003754759
0.003755434
0.003486271
0.003449957
0.003484541
0.003739075
0.003737761
0.003474459
0.003449009
0.003727175
0.003691442
0.00360463
0.003443072
0.003639347
0.003650162
0.003443222
0.003446077
0.00369062
0.003763156
0.00365035
0.003659096
0.003443524
0.003447528
0.003806642
0.003883696
0.003658246
0.003668419
0.003443818
0.003448823
0.003919619
0.00398785
0.00366782
0.003678806
0.003444332
0.003450628
0.004029583
0.003678033
0.003690294
0.003444911
0.00345132
0.00368938
0.003700952
0.00344584
0.003455156
0.004378226
0.003702176
0.003713324
0.003448423
0.004429212
0.003714676
0.003442376
0.003703417
0.003466697
0.003944934
0.003619332
0.003916721
0.003621235
0.003916027
0.003624051
0.003921323
0.003624435
0.003920075
0.003626504
0.003922477
0.003624869
0.003921191
0.003626437
0.003922328
0.003625053
0.003921016
0.003626
0.003921882
0.003624708
0.003920567
0.003624863
0.003920805
0.003623768
0.003919452
0.003622758
0.003918919
0.003621952
0.0039175
0.003620475
0.003916133
0.003619756
0.003914669
0.003617799
0.003912152
0.00361662
0.003910757
0.003613402
0.003906481
0.003612339
0.003905149
0.003607595
0.00389882
0.003606929
0.003897454
0.003600312
0.003888824
0.003600278
0.003887326
0.003591154
0.003875755
0.00359247
0.00387417
0.003580091
0.003858935
0.003583678
0.003857272
0.003566104
0.003837525
0.003573493
0.003835843
0.003549862
0.003810857
0.003558132
0.003809299
0.003530223
0.003776864
0.003535267
0.003774922
0.003507795
0.003736175
0.003511016
0.003733128
0.003491333
0.00369801
0.00348744
0.00369592
0.003738078
0.003711872
0.003739915
0.003480347
0.003489287
0.003455284
0.003467822
0.003758231
0.003768628
0.003796428
0.003499777
0.003514654
0.003456353
0.003478157
0.003783179
0.003832062
0.003858839
0.003524149
0.003544857
0.003462075
0.003497377
0.003810937
0.003897427
0.003927859
0.003551646
0.00358018
0.003469817
0.003529138
0.003841899
0.003971843
0.004010348
0.003587888
0.003630067
0.003487251
0.003590792
0.003878195
0.004060896
0.004113288
0.003644044
0.003716637
0.003536612
0.003731126
0.004175004
0.0037611
0.003671644
0.003423792
0.003576101
0.003449388
0.00352349
0.003409193
0.003703289
0.003544721
0.003458805
0.00346013
0.003386276
0.00355643
0.003464613
0.003818535
0.003577185
0.003469987
0.003464681
0.003448377
0.003584273
0.003519316
0.003932508
0.003608339
0.003484412
0.003471762
0.003509038
0.003611438
0.003576664
0.004047342
0.003640018
0.003501725
0.00348323
0.003571151
0.003640393
0.003641
0.004171402
0.003673617
0.003526663
0.003507348
0.003638476
0.003671619
0.003718935
0.004313158
0.003711282
0.003567694
0.003566739
0.003717608
0.003707854
0.003757085
0.003653624
0.003816993
0.003444346
0.003651506
0.003443599
0.003653116
0.00348666
0.003486119
0.003466556
0.003449039
0.00345828
0.003468827
0.003449273
0.00328237
0.003457473
0.003283326
0.003452449
0.003485738
0.003485941
0.003455601
0.003452318
0.003450073
0.003457343
0.003452654
0.003282017
0.003450356
0.003281958
0.003449959
0.003486549
0.00348718
0.003456816
0.003451886
0.003449595
0.003457207
0.003451605
0.003282017
0.003449488
0.003282357
0.003448809
0.003487144
0.003487669
0.003457795
0.003451424
0.003449732
0.003457881
0.003451396
0.003282167
0.003448737
0.003281994
0.003448714
0.00348695
0.003487713
0.003457872
0.003451395
0.003449743
0.003457786
0.003451421
0.003282198
0.003448721
0.003282022
0.003448704
0.003487282
0.003487591
0.003457217
0.003451602
0.003449544
0.003456825
0.003451879
0.003282463
0.003448911
0.003282309
0.003448792
0.003487029
0.003487392
0.003457314
0.003452654
0.00344987
0.003455582
0.003452337
0.003282305
0.003449198
0.00328224
0.00345071
0.003487447
0.003487357
0.003468355
0.003449272
0.003456367
0.003466661
0.003449141
0.003282233
0.003451421
0.003282201
0.003454845
0.003474697
0.003484248
0.003544379
0.003454682
0.003542842
0.003813592
0.003814163
0.00352693
0.003462856
0.003525123
0.003785443
0.00378582
0.003488841
0.003455204
0.003465455
0.003735158
0.003737764
0.003711838
0.003725112
0.003514779
0.003456373
0.003476119
0.003756353
0.003758047
0.0037572
0.003766165
0.003548289
0.003461939
0.003491565
0.003781826
0.003784986
0.003811433
0.003838399
0.003571021
0.003470117
0.003489539
0.003813012
0.003818286
0.003852414
0.003920495
0.003644015
0.003496336
0.00351638
0.003847944
0.003851192
0.003960801
0.004010563
0.003718892
0.003569434
0.003723719
0.003881339
0.00387985
0.004049143
0.004074339
0.003670555
0.003915725
0.004177109
0.003300149
0.003453685
0.003283983
0.003455965
0.003612044
0.003929721
0.003628192
0.003911136
0.003474587
0.00348442
0.003621122
0.003921749
0.003620723
0.003919721
0.003625267
0.003922392
0.003623739
0.003920966
0.003626925
0.003922654
0.003625172
0.003921305
0.00362679
0.003922425
0.003625177
0.003921127
0.00362649
0.003921993
0.00362511
0.003920727
0.003625882
0.003921051
0.003624712
0.003919828
0.003624714
0.003919362
0.003623646
0.003918165
0.003622777
0.003916756
0.003622083
0.003915557
0.003619975
0.003912894
0.003619947
0.003911694
0.003616158
0.003907404
0.003616865
0.003906189
0.0036109
0.00389981
0.003612758
0.003898567
0.003603727
0.003889619
0.0036077
0.003888211
0.003594493
0.003875755
0.003599618
0.003874065
0.003584531
0.003858023
0.003589187
0.003856251
0.003571586
0.00383578
0.003577249
0.003833355
0.003556004
0.003807428
0.00356209
0.003804786
0.00353549
0.003769072
0.003541002
0.003767002
0.003505231
0.003723886
0.003509782
0.003722206
0.003477435
0.003669095
0.003470454
0.003680412
0.003358623
0.003618192
0.003543734
0.003465949
0.003477714
0.003382235
0.003526976
0.003443207
0.003650335
0.003443082
0.003650389
0.003300355
0.003454707
0.003456533
0.003284038
0.003415501
0.003734938
0.003574051
0.003473627
0.003461267
0.0034399
0.003558589
0.003474772
0.003844728
0.00360243
0.003482868
0.003470294
0.003495738
0.003588755
0.003534292
0.003954109
0.003630993
0.003498651
0.003482503
0.003552671
0.003618599
0.003597138
0.004065259
0.003661051
0.003530318
0.003501444
0.003613832
0.003650002
0.003667947
0.004185239
0.003694497
0.003598746
0.003534763
0.00368407
0.003684101
0.003754133
0.004322084
0.003735189
0.003732764
0.003616317
0.003770509
0.003724008
0.003487582
0.003487761
0.003282265
0.003451415
0.003455055
0.003282188
0.003487201
0.003487159
0.003282294
0.003449208
0.003450731
0.003282
0.003487029
0.00348752
0.003282181
0.003448922
0.003448788
0.003282049
0.003487091
0.003487841
0.003282001
0.00344872
0.003448704
0.003282159
0.003486963
0.003487622
0.003282178
0.003448735
0.003448713
0.003282216
0.003487088
0.003487719
0.003282175
0.003449466
0.003448807
0.003282281
0.003485521
0.003485752
0.003282093
0.003450314
0.003449932
0.003282078
0.003486535
0.003485912
0.003282375
0.003456647
0.003452119
0.0032832
0.003466691
0.003944568
0.003469538
0.003950401
0.003464751
0.003939445
0.00361196
0.003929677
0.003628633
0.003911124
0.003462753
0.003940187
0.003467406
0.003945102
0.003464917
0.003958455
0.003466709
0.003950287
0.003464152
0.003945119
0.003467967
0.003947136
0.003467589
0.003963284
0.003468601
0.003955154
0.003464033
0.0039475
0.003469909
0.003948632
0.003467058
0.003963863
0.00346825
0.003956426
0.003463211
0.003947425