/*--------------------------------*- C++ -*----------------------------------*\
  =========                 |
  \\      /  F ield         | OpenFOAM: The Open Source CFD Toolbox
   \\    /   O peration     | Website:  https://openfoam.org
    \\  /    A nd           | Version:  7
     \\/     M anipulation  |
\*---------------------------------------------------------------------------*/
FoamFile
{
    version     2.0;
    format      ascii;
    class       volScalarField;
    location    "0.09";
    object      p;
}
// * * * * * * * * * * * * * * * * * * * * * * * * * * * * * * * * * * * * * //

dimensions      [0 2 -2 0 0 0 0];

internalField   nonuniform List<scalar> 
109978
(
0.02387411
0.03357194
0.04971986
0.06183431
0.07398197
0.08587071
0.02404195
0.03259851
0.04986681
0.06444604
0.07699471
0.08899427
0.02451787
0.03450351
0.05098401
0.06623994
0.07914058
0.09117359
0.02452331
0.03553079
0.05187817
0.06697663
0.08002463
0.09229394
0.02491098
0.03587722
0.05274163
0.0678047
0.08095161
0.09323085
0.02503856
0.03641677
0.05335305
0.06857247
0.08179284
0.09423525
0.02529374
0.03688841
0.05407239
0.06941718
0.08279842
0.095331
0.02551883
0.03734826
0.05473343
0.07025695
0.08380014
0.09648729
0.02580747
0.03785612
0.0554866
0.07119881
0.08492392
0.09778207
0.02610934
0.03836722
0.05628492
0.072194
0.08611467
0.09915924
0.02644964
0.03892882
0.05714831
0.07328607
0.08741662
0.1006719
0.02682439
0.03951458
0.05807924
0.07445471
0.08879912
0.1022299
0.02723779
0.04017004
0.05907197
0.07571979
0.09029894
0.1038536
0.0276896
0.04087306
0.0601244
0.07704908
0.09181332
0.1072002
0.02818213
0.04163588
0.06125804
0.07848128
0.09338946
0.1112793
0.02874714
0.04246929
0.06246555
0.07994794
0.0959375
0.1155908
0.02935363
0.04337537
0.06373915
0.08146099
0.09961877
0.1200179
0.03000873
0.04437273
0.06511577
0.08318377
0.102963
0.1225984
0.03070767
0.04542556
0.06652299
0.0850886
0.1076117
0.1234545
0.03146302
0.04654753
0.06796426
0.08794908
0.1127795
0.1246185
0.03226401
0.04775458
0.06953941
0.09120224
0.1159665
0.127068
0.03310639
0.04894732
0.0712823
0.09494954
0.1184129
0.1298335
0.02696077
0.05006559
0.07357053
0.1000677
0.1194346
0.1324419
0.02046262
0.03573976
0.04959894
0.06345834
0.07503354
0.08624435
0.009081188
0.02003003
0.02871949
0.0425307
0.05293608
0.06548823
0.009429385
0.01935303
0.02912239
0.04260538
0.05382495
0.06578675
0.009079432
0.02007564
0.02897704
0.04375015
0.05406809
0.06646868
0.008995041
0.01975434
0.02912357
0.04383856
0.05470495
0.0669611
0.009149367
0.02040425
0.02931211
0.04462497
0.05516785
0.0676277
0.009209621
0.02041376
0.02955832
0.04481068
0.05564659
0.06811992
0.009328729
0.02085865
0.02990679
0.04545713
0.05625034
0.0688637
0.009441215
0.02105596
0.03020314
0.04584813
0.05680782
0.06952346
0.009573022
0.02140884
0.03060699
0.04645585
0.05751302
0.07036122
0.00970489
0.02169782
0.03099232
0.04700523
0.05821457
0.07120313
0.009846273
0.02204767
0.03144978
0.04765577
0.05903062
0.07216301
0.009993576
0.02239846
0.03191959
0.04832256
0.05986864
0.0731461
0.01014582
0.02278533
0.03244839
0.04907155
0.06081567
0.07433866
0.01030507
0.02318669
0.03300317
0.0498354
0.06176014
0.07540654
0.01047367
0.0236233
0.03362187
0.05070702
0.06288352
0.07677726
0.0106529
0.02407684
0.03427987
0.05165058
0.06396824
0.07858494
0.0108407
0.02456158
0.03498678
0.05264016
0.06512955
0.08008448
0.0110418
0.02510664
0.0357833
0.05378793
0.06659972
0.08242946
0.01125257
0.02569164
0.03663508
0.05490903
0.06843433
0.08420748
0.01147365
0.02632212
0.03753421
0.05601964
0.07020441
0.08498463
0.01170098
0.02702687
0.03852094
0.0574741
0.07201892
0.0869985
0.01193213
0.02777496
0.03954597
0.05908519
0.07369934
0.08908462
0.006643032
0.02862441
0.04072129
0.06105358
0.07656276
0.09175951
0.01869762
0.03952796
0.05353894
0.06618631
0.07905432
0.08816293
0.007862605
0.01753333
0.02942085
0.04190441
0.05338917
0.06600379
0.006938842
0.01798372
0.02861359
0.04081354
0.05397553
0.0656665
0.00545654
0.01786832
0.02944556
0.04167594
0.05397374
0.06614321
0.005047726
0.01800846
0.02960456
0.04161543
0.05428223
0.06624697
0.004948235
0.01820088
0.02982046
0.04222044
0.05461354
0.06678326
0.004997496
0.01824771
0.03010182
0.04243836
0.05505114
0.06721272
0.005045806
0.0185198
0.03039476
0.0430129
0.05560803
0.06791152
0.005112941
0.01865186
0.03071286
0.04342167
0.05617635
0.06857876
0.005184342
0.01892519
0.03110248
0.04402967
0.05688904
0.0694314
0.005259563
0.01915237
0.03149927
0.04460414
0.05762357
0.07031871
0.005338438
0.01944877
0.03196763
0.04529477
0.05848198
0.07135192
0.005421476
0.0197526
0.03246292
0.04601561
0.05939676
0.07245589
0.00551
0.02009809
0.03301802
0.04682267
0.06042069
0.07367914
0.005604529
0.02046931
0.03361274
0.04768521
0.06151134
0.07501901
0.005706823
0.02087906
0.03426413
0.04863133
0.06268943
0.07656482
0.005817947
0.02132437
0.03496839
0.04964874
0.06398588
0.07817723
0.005937431
0.02180461
0.03572659
0.05072304
0.06538174
0.07985125
0.006062461
0.02232812
0.03655573
0.05187728
0.06696102
0.08153114
0.006192973
0.02289137
0.03744522
0.05312561
0.06862992
0.08363012
0.006330159
0.02349961
0.03839295
0.05447745
0.07037892
0.08596605
0.006472794
0.02415077
0.03939673
0.05593062
0.07224801
0.08820255
0.00662398
0.02485608
0.04046723
0.05752709
0.07425456
0.090488
0.006788294
0.02562044
0.04164302
0.05933162
0.07652022
0.09273362
0.01994955
0.04107056
0.05437884
0.06795782
0.08242816
0.09455773
0.006263375
0.01742888
0.02997538
0.0419096
0.05367878
0.06580521
0.004625374
0.01805593
0.02870972
0.04133545
0.05384677
0.06564846
0.003325359
0.0181861
0.02960741
0.04250682
0.0540396
0.0664157
0.003140759
0.01828153
0.02974435
0.04244711
0.05442391
0.0666468
0.003125447
0.01868559
0.02997971
0.04325732
0.05481892
0.06734784
0.003144414
0.01870584
0.03022895
0.04338189
0.05523056
0.0677634
0.003180869
0.01908929
0.03055238
0.04405573
0.05582146
0.06852531
0.00320795
0.01922461
0.0308494
0.04441096
0.05634997
0.06915566
0.003247041
0.01954777
0.03125948
0.04504421
0.05706483
0.07001218
0.003283385
0.01978821
0.03165024
0.04559028
0.05776244
0.07085583
0.003326188
0.02010861
0.03212599
0.04627199
0.05859498
0.07184655
0.003370881
0.02042324
0.03261673
0.04696778
0.05946093
0.07288005
0.003420344
0.02078067
0.03316996
0.04775454
0.06043904
0.07405953
0.00347362
0.021158
0.03375765
0.04858175
0.06146013
0.07525957
0.003531943
0.02157188
0.03440431
0.04949867
0.0626009
0.07663383
0.003595185
0.02201676
0.0350996
0.05048329
0.06380478
0.07812079
0.003663785
0.02249621
0.03584801
0.05153773
0.06509563
0.07968367
0.003738627
0.02301974
0.03666791
0.05270029
0.06654093
0.08147045
0.003819266
0.02357774
0.03754316
0.053919
0.06809242
0.08327719
0.003906565
0.02417965
0.03848358
0.05522426
0.06974284
0.08512602
0.004001544
0.02483058
0.03949843
0.05666321
0.07153513
0.08722631
0.004104792
0.02553129
0.04058407
0.05821066
0.07343451
0.08947209
0.004216023
0.0262962
0.04177695
0.05993689
0.0755949
0.09197519
0.02080623
0.04047501
0.05365418
0.06844748
0.08389591
0.09299393
0.005757311
0.01651795
0.03037211
0.04134829
0.05367151
0.0655497
0.00393894
0.01784587
0.02882337
0.0412565
0.05389633
0.06565982
0.002878801
0.01753649
0.0297876
0.0419701
0.05410316
0.06624376
0.002812779
0.01779696
0.02990062
0.04198409
0.05444914
0.06641049
0.002791936
0.01810002
0.0301191
0.04270138
0.05482158
0.06707504
0.002809924
0.0181133
0.03039342
0.0428277
0.055234
0.0674635
0.002841721
0.01846942
0.03069873
0.0434795
0.05581081
0.06821348
0.002863429
0.01858207
0.03100537
0.04382638
0.05634092
0.06883751
0.002899187
0.01889111
0.03141266
0.04445563
0.05705677
0.06969735
0.002931319
0.01911578
0.03180633
0.04499709
0.05775963
0.07054704
0.002970336
0.01942639
0.03228578
0.0456801
0.05859999
0.07155297
0.003011052
0.01973157
0.03278203
0.04637748
0.05947865
0.07261158
0.003056572
0.02008155
0.03334182
0.04716583
0.06046588
0.07379898
0.003105602
0.02045302
0.03393899
0.04800385
0.06151556
0.07506195
0.003158952
0.02086059
0.03459336
0.04892342
0.06266604
0.07645503
0.003216676
0.02130063
0.03529889
0.04991407
0.06390285
0.07794882
0.003279377
0.02177457
0.03605777
0.05097536
0.06523149
0.07953694
0.003348207
0.0222912
0.03688412
0.05213223
0.0666828
0.08125642
0.00342298
0.02284281
0.03776453
0.05336468
0.06822885
0.08309756
0.003505588
0.02344683
0.03871848
0.05471412
0.06989086
0.08509367
0.003596026
0.02408772
0.03972559
0.05614443
0.07164595
0.0871902
0.003697318
0.02480677
0.0408287
0.05775912
0.07354518
0.08950795
0.003806039
0.02555585
0.04199177
0.05943308
0.07556809
0.0918752
0.02360096
0.03660411
0.05301823
0.06909075
0.08002024
0.09447158
0.00577872
0.0167977
0.03053422
0.04040279
0.0549899
0.06544047
0.003777044
0.01788073
0.02893166
0.0413885
0.05374385
0.06567556
0.002768542
0.01756047
0.02979047
0.04190241
0.05421734
0.06623309
0.002737379
0.01781043
0.02992042
0.0419918
0.0544592
0.06641316
0.002756584
0.01810483
0.0301219
0.04270253
0.05483307
0.06707764
0.002777246
0.01811649
0.0303974
0.04283094
0.05523856
0.06746572
0.002812278
0.01847132
0.03070068
0.04348235
0.05581429
0.06821572
0.002837459
0.01858338
0.03100703
0.04382867
0.05634343
0.06883949
0.002874758
0.01889223
0.031414
0.04445763
0.05705888
0.06969908
0.002909669
0.01911673
0.03180758
0.04499886
0.05776115
0.07054887
0.002951723
0.0194274
0.032287
0.04568178
0.05860141
0.07155454
0.002995933
0.01973259
0.03278333
0.04637926
0.05948006
0.07261353
0.003045269
0.02008276
0.03334327
0.04716775
0.06046789
0.07380073
0.003098546
0.02045452
0.03394082
0.04800616
0.06151811
0.07506412
0.003156849
0.02086249
0.03459573
0.04892607
0.06266962
0.07645709
0.003219946
0.02130304
0.03530196
0.049917
0.06390765
0.07795068
0.00328836
0.02177789
0.03606249
0.05097893
0.06524014
0.07953875
0.003362612
0.02229432
0.03688921
0.05213216
0.06669514
0.081253
0.003442323
0.022847
0.0377746
0.05336355
0.06825562
0.08309429
0.003528815
0.02344409
0.03872429
0.05468718
0.06992407
0.08506134
0.003622098
0.02408338
0.03974471
0.05610479
0.0717194
0.08715844
0.003722931
0.02477195
0.04083334
0.05762334
0.07364134
0.08938615
0.003830581
0.02551181
0.0420242
0.05926486
0.07572727
0.09177178
0.02381098
0.03292901
0.05458828
0.07114302
0.0821704
0.09459794
0.005734681
0.01771758
0.02983862
0.04206664
0.05352021
0.06668163
0.003680255
0.01807151
0.02874008
0.04145069
0.0538611
0.06572483
0.00281735
0.01822301
0.0296109
0.04253727
0.05402197
0.06650548
0.002791959
0.01829207
0.02975918
0.04247178
0.05442889
0.0666591
0.002831007
0.01869097
0.02998402
0.0432628
0.05481892
0.06735482
0.002851905
0.01870853
0.03023313
0.04338577
0.05523149
0.06776318
0.00288794
0.01908967
0.03055343
0.04405562
0.05581988
0.06852322
0.002914507
0.01922462
0.03084967
0.0444103
0.05634814
0.06915324
0.002953071
0.01954715
0.03125881
0.04504268
0.05706264
0.07000948
0.002989518
0.01978744
0.03164907
0.04558868
0.05776051
0.07085332
0.003032778
0.02010742
0.03212416
0.04626999
0.05859294
0.07184392
0.003078192
0.02042203
0.03261434
0.04696562
0.05945865
0.07287743
0.003128705
0.02077903
0.03316671
0.04775154
0.06043529
0.07405642
0.003183128
0.02115597
0.03375348
0.04857813
0.061455
0.0752566
0.00324234
0.02156867
0.03439791
0.04949297
0.06259199
0.0766291
0.003306207
0.02201254
0.03509023
0.05047685
0.06379207
0.07811778
0.003374882
0.02248871
0.03583092
0.0515263
0.06507121
0.07967715
0.003449601
0.02301231
0.03664351
0.05269339
0.06650573
0.0814763
0.003529325
0.02356336
0.03749617
0.05390031
0.06801924
0.08326986
0.003615767
0.02417662
0.03842146
0.05524154
0.06963605
0.08516974
0.003707228
0.02481557
0.03937972
0.05665196
0.07131283
0.08721943
0.003808751
0.02557497
0.04044381
0.05836489
0.07312485
0.08963709
0.003912979
0.0263173
0.04152566
0.06000053
0.07500088
0.09190304
0.02328825
0.03243547
0.05462204
0.06944824
0.08236573
0.08973481
0.004398654
0.01780194
0.02947517
0.04191247
0.05347913
0.0656546
0.003551907
0.01810043
0.02870771
0.04090243
0.05401082
0.06578272
0.002796331
0.01792713
0.0294775
0.04172027
0.05402451
0.0661478
0.002850479
0.01803461
0.02963041
0.04164531
0.05430341
0.06625886
0.002856717
0.01821536
0.02983374
0.04223833
0.05462761
0.06678918
0.002883415
0.01825483
0.03011068
0.0424492
0.05505915
0.06721603
0.002912572
0.01852405
0.03040001
0.04301948
0.05561251
0.06791358
0.002938143
0.01865421
0.03071642
0.04342589
0.05617921
0.06858011
0.00297525
0.01892701
0.03110502
0.04403253
0.05689098
0.06943249
0.003013228
0.01915388
0.03150131
0.04460628
0.05762519
0.07031972
0.003058076
0.01945019
0.03196929
0.0452965
0.05848317
0.07135277
0.003105588
0.01975427
0.03246443
0.04601707
0.05939766
0.0724567
0.003158155
0.02009978
0.03301921
0.04682371
0.06042102
0.07367946
0.003214927
0.02047126
0.0336132
0.04768587
0.06151136
0.07501894
0.003276467
0.02088045
0.0342633
0.04863066
0.06268801
0.0765633
0.003342382
0.02132548
0.03496603
0.04964645
0.06398249
0.07817555
0.003413174
0.02180469
0.03572126
0.05071716
0.06537874
0.07984727
0.003489809
0.02232616
0.03654488
0.05186274
0.06695765
0.08151904
0.003571272
0.02288515
0.03742625
0.05309303
0.06862492
0.08361681
0.003655861
0.02348074
0.03835538
0.05440017
0.07037034
0.0859315
0.003743497
0.02411341
0.03933624
0.05577386
0.07222563
0.08816303
0.003839132
0.02477351
0.04036507
0.05720195
0.07422129
0.09039989
0.003931524
0.02548513
0.04148512
0.05875086
0.07638079
0.09273772
0.02294285
0.03311479
0.05004409
0.06258031
0.07673608
0.08595297
0.004921735
0.02019056
0.0288179
0.0427149
0.0533505
0.06538632
0.003436047
0.01944405
0.02923123
0.04272844
0.05390631
0.0658788
0.002741114
0.02012607
0.02902219
0.04380465
0.05412275
0.06648977
0.002705305
0.01977379
0.02916061
0.04387106
0.05472997
0.06697164
0.002717505
0.02041596
0.02932805
0.04464082
0.05517878
0.06763006
0.002739669
0.02041879
0.02956834
0.04481941
0.05565168
0.06811964
0.002768766
0.0208612
0.02991158
0.04546092
0.05625159
0.06886148
0.002791208
0.02105772
0.03020531
0.04585003
0.0568075
0.06952118
0.00282249
0.02141011
0.03060713
0.04645626
0.05751159
0.07035857
0.002853332
0.02169936
0.03099129
0.04700537
0.05821255
0.07120088
0.002889509
0.02204766
0.03144709
0.04765511
0.05902789
0.07216013
0.002927281
0.02239944
0.03191614
0.04832192
0.05986537
0.0731438
0.002968936
0.02278607
0.03244344
0.04906969
0.06081101
0.0743351
0.003012999
0.023187
0.03299671
0.04983312
0.06175436
0.07540501
0.003059924
0.02362204
0.03361136
0.05070172
0.06287234
0.07677113
0.003108311
0.02407364
0.03426508
0.05164501
0.06395573
0.07858413
0.00315873
0.02455291
0.03495894
0.05262524
0.06509705
0.08007269
0.003214153
0.02509674
0.03574159
0.05377759
0.06654945
0.08245319
0.003272483
0.0256694
0.03655178
0.05487474
0.06832766
0.08417878
0.003350338
0.02631482
0.03741458
0.05603355
0.07003594
0.08503561
0.003438997
0.02700048
0.03828179
0.05742131
0.07161474
0.08691002
0.00352401
0.0278474
0.03925818
0.0593231
0.07318756
0.08926583
0.00666402
0.0286563
0.04016082
0.06112617
0.07480207
0.09111734
0.01641258
0.02992729
0.04377213
0.0564357
0.06832652
0.07966225
0.001253154
0.01345428
0.03019674
0.04400371
0.05779677
0.06936442
0.0812938
0.001207943
0.01154419
0.03189385
0.04880553
0.06546522
0.07802977
0.08997954
0.001103024
0.01081138
0.03149801
0.04982965
0.06661628
0.07953922
0.09163293
0.001115131
0.01104445
0.03021004
0.05004827
0.06697596
0.08017033
0.09246438
0.001120165
0.01058192
0.03059247
0.05083404
0.0676261
0.0809309
0.09328589
0.00111834
0.01046362
0.03083684
0.05152153
0.06833395
0.0816529
0.09418138
0.001123162
0.01038623
0.03124344
0.05226986
0.06911064
0.08258809
0.09516768
0.001129476
0.01032885
0.03164559
0.05293814
0.06988527
0.0835088
0.09620645
0.001140011
0.01032066
0.03208111
0.05368296
0.07075695
0.08452716
0.09738078
0.001152435
0.01033112
0.03252531
0.05444778
0.07167336
0.08560556
0.0986353
0.001168721
0.01037597
0.03298758
0.05528438
0.07268007
0.08678784
0.1000137
0.001184074
0.0104506
0.03347789
0.05615494
0.07376672
0.0880352
0.1014404
0.001203432
0.01055818
0.03399247
0.05708813
0.07494275
0.08938634
0.1024853
0.001224844
0.01070159
0.03451253
0.05808043
0.07617765
0.09080463
0.1038432
0.001250133
0.01088519
0.03505924
0.05914505
0.07752236
0.091989
0.1076121
0.00128019
0.01112586
0.03560398
0.06029452
0.07889508
0.09301449
0.1123674
0.001317579
0.01137831
0.03617288
0.06148815
0.08033747
0.0944876
0.119025
0.001362925
0.01169464
0.03677941
0.06273299
0.0817661
0.09821799
0.1220047
0.001410335
0.01205006
0.03742838
0.06397051
0.0825192
0.1036453
0.1233024
0.001459334
0.01245415
0.03809201
0.06527603
0.08355281
0.1113015
0.1224853
0.001510235
0.01287248
0.03872097
0.06655728
0.08529119
0.1149265
0.1246946
0.001560441
0.01333363
0.0393788
0.06764501
0.0874828
0.1176299
0.1273751
0.001606328
0.02615677
0.0400578
0.06836736
0.09118009
0.1196272
0.1300464
0.006338659
0.002808033
0.002363761
0.01029517
0.003386119
0.0107849
0.001208778
0.007265039
0.001254544
0.009942149
0.01038886
0.0101648
0.001203337
0.007530074
0.001150729
0.009407002
0.0118547
0.01017318
0.001101401
0.007662736
0.001181937
0.009648846
0.01211102
0.009633228
0.001114004
0.007513703
0.001182688
0.009478997
0.01223464
0.009475314
0.001120032
0.007469206
0.001189713
0.009409888
0.0123682
0.009316727
0.001118124
0.007399465
0.001194679
0.009401148
0.01254615
0.009223943
0.001122862
0.007359073
0.001203462
0.009400764
0.01274462
0.009110626
0.00112939
0.007309207
0.001214
0.009420933
0.01296765
0.009043709
0.001139827
0.00729633
0.001228794
0.00946795
0.01320669
0.009017802
0.001152115
0.007326673
0.001245334
0.009541027
0.01344837
0.009037186
0.001167783
0.007387633
0.00126209
0.009643804
0.01368665
0.009162493
0.001184012
0.007472052
0.00128041
0.009729306
0.01397435
0.00936493
0.001203531
0.007577593
0.001299856
0.009846755
0.01430513
0.00963224
0.001225301
0.007707977
0.00132018
0.009991203
0.01467423
0.009942424
0.0012503
0.007862627
0.00134171
0.01017687
0.01507256
0.01031007
0.001280512
0.008036993
0.001364428
0.01037093
0.01550385
0.01077029
0.00131793
0.008212295
0.001387932
0.01053096
0.01600639
0.0112755
0.001362543
0.008403504
0.001414518
0.01071913
0.0165682
0.01181319
0.001411544
0.008618853
0.001442891
0.01096319
0.01718495
0.01240298
0.001461166
0.008862809
0.00147637
0.01124141
0.01785597
0.01301908
0.001513397
0.009154134
0.001509261
0.01157955
0.01852232
0.01375887
0.001564041
0.009500036
0.001542096
0.01194696
0.01937571
0.01245297
0.001610901
0.009746967
0.001576105
0.01232996
-0.001383242
0.0009189711
0.0116365
0.002211447
0.001568196
0.01171564
0.002688999
0.001310331
0.0115659
0.00344856
0.001337111
0.0117903
0.003240157
0.001334734
0.01168868
0.00222601
0.001296222
0.01210491
0.003759652
0.001272747
0.01221388
0.003511492
0.001390212
0.01228894
0.003851834
0.001390267
0.01263217
0.003059508
0.001437602
0.0122236
0.003833546
0.001370592
0.01255688
0.002214429
0.001407608
0.01178653
0.00348369
0.00139032
0.01217629
0.002799955
0.001259436
0.01181705
0.00311734
0.001418965
0.01171267
-0.0008899162
0.001044538
0.01175884
0.002797781
0.002611986
0.01048194
0.006388207
0.00730941
0.001259184
0.01002356
0.003451174
0.01085939
0.007565899
0.001153426
0.009436843
0.01045228
0.01021268
0.007683603
0.001182696
0.009664383
0.01188963
0.01019101
0.007398902
0.001194532
0.009394746
0.01237054
0.009314324
0.007357158
0.001203261
0.009393787
0.01254722
0.009218777
0.007305839
0.001213809
0.009413748
0.01274541
0.009104045
0.007292944
0.001228576
0.009458836
0.01296802
0.009034932
0.00732382
0.001245457
0.009531588
0.01320624
0.009020683
0.007390304
0.001262456
0.009650554
0.01345256
0.009041964
0.007469809
0.001280319
0.009726148
0.01368667
0.009164409
0.007573499
0.001299599
0.009838536
0.01397196
0.009365224
0.007702776
0.001319065
0.009977881
0.01430111
0.009630094
0.007856843
0.001341215
0.01016492
0.01467253
0.009942561
0.00803101
0.001364031
0.01036024
0.01506998
0.01030942
0.008205682
0.00138751
0.01052131
0.01550022
0.01076688
0.008397846
0.001414359
0.01072555
0.01599741
0.01126788
0.008613159
0.001442101
0.0109719
0.01655057
0.01180975
0.009134677
0.001507203
0.01158094
0.01784451
0.01302848
0.009473289
0.00153902
0.01193199
0.01852105
0.01377298
0.009696973
0.001571357
0.01230765
0.01938372
0.01245761
0.002219701
0.002190095
0.01202885
0.01682174
0.01626327
0.01446574
0.01512071
0.01789067
0.02808291
0.02986078
0.02975404
0.02712462
0.03042722
0.0266113
0.04116551
0.04195933
0.04353758
0.03870603
0.0455465
0.03645045
0.05468032
0.05362068
0.05624724
0.04982043
0.05969289
0.04768231
0.06668853
0.06535762
0.06782693
0.06173685
0.07143652
0.05935693
0.07851971
0.07996373
0.08365697
0.003508616
0.007684833
0.002675436
0.009339292
0.004068319
0.01077183
0.003376425
0.009337084
0.004149236
0.009554622
0.003487434
0.009266384
0.004171862
0.009706296
0.003630454
0.009928953
0.004143898
0.01010262
0.003601534
0.01066393
0.004133423
0.01058659
0.003540111
0.01140504
0.004154197
0.01120187
0.003487654
0.01221869
0.004196256
0.01196305
0.003450546
0.01309908
0.004252915
0.01281732
0.00343527
0.0140414
0.004319987
0.01367672
0.003437559
0.01502684
0.004402086
0.0145919
0.003467092
0.01609602
0.004501529
0.01554387
0.003539204
0.01720657
0.004617321
0.01649374
0.003656232
0.01849196
0.004737601
0.0175817
0.003700131
0.01985027
0.00487076
0.01877778
0.003755292
0.0213337
0.005005256
0.02016862
0.003718223
0.02296107
0.005134747
0.02105113
0.003753305
0.02457977
0.005314757
0.02180211
0.003852584
0.02585316
0.005415269
0.02274984
0.003946472
0.02707837
0.005475185
0.02402645
0.003938247
0.02814152
0.005545856
0.02549906
0.003851784
0.02940293
0.005536467
0.02667413
0.003810055
0.0309152
0.005486117
0.02715099
0.003881374
0.03293647
-0.004757014
-0.005531185
-0.007182533
-0.007660079
-0.00630013
-0.007536208
-0.00645266
-0.005784607
-0.00370296
-0.007192179
-0.00657657
-0.006978843
-0.007870873
-0.006544376
-0.006649301
-0.00669396
-0.002658223
-0.001423209
0.01462969
0.01532505
0.01803719
0.01214048
0.01697491
0.02736819
0.03063822
0.02684159
0.02824301
0.03005455
0.03888053
0.04582295
0.03675612
0.04137043
0.04218768
0.05019823
0.05986564
0.04785152
0.05490582
0.0538126
0.06178025
0.07183924
0.05950479
0.06685629
0.06536029
0.08338989
0.07848752
0.007530888
0.001182754
0.009476309
0.01212445
0.009642714
0.007474537
0.0011892
0.009406741
0.01223921
0.009474289
0.008853423
0.001474842
0.01124971
0.01716892
0.01240362
0.00845817
0.006856261
0.004223332
0.005889463
0.004057454
0.007386258
0.003457387
0.001574075
-0.002596024
-0.001429475
0.003259477
0.01078762
0.003779726
0.009200002
0.003637114
0.009218063
0.004242625
0.009785376
0.003664307
0.009456421
0.004322104
0.009409384
0.003735292
0.01019171
0.004324683
0.009835183
0.003658794
0.01077609
0.004322806
0.01044318
0.003548867
0.01151815
0.004350145
0.01112596
0.003468267
0.01236157
0.004390155
0.01187819
0.003418107
0.01334174
0.004446202
0.01273102
0.003385169
0.0143334
0.004511291
0.01368835
0.003378297
0.01535212
0.004582603
0.01469003
0.003401793
0.01642517
0.004667612
0.01578733
0.003464873
0.01758015
0.004770873
0.016969
0.003519571
0.01887395
0.004864036
0.01856632
0.003536278
0.02035702
0.00497133
0.01990574
0.003558872
0.02211402
0.005073014
0.02120417
0.003570205
0.02334626
0.005229153
0.02263275
0.003568277
0.02438567
0.005407211
0.0242381
0.003520368
0.02552493
0.005638899
0.02585061
0.003485492
0.02699067
0.005793677
0.0274225
0.003498767
0.02875136
0.005764981
0.02840205
0.003521888
0.03044475
0.005597978
0.02952726
0.003571213
0.03140239
0.005603979
0.03094981
0.003642398
0.003090558
0.03267247
0.005721017
-0.007802228
-0.006665346
-0.006742676
-0.006588386
-0.007762541
-0.007858769
-0.006517278
-0.005329838
-0.006866715
-0.005940243
-0.006642583
-0.00773413
-0.007081309
-0.007044444
-0.00445238
-0.005248368
0.002090318
0.00219039
0.008472518
0.006897937
0.004224297
0.00593539
0.00396595
0.007438003
0.003456882
0.001603151
0.003511849
0.007757073
0.002725253
0.009365494
0.003307533
0.01078034
0.003782544
0.00921969
0.004079509
0.01076399
0.003396583
0.009349203
0.003656408
0.009228854
0.004250531
0.009791142
0.00415163
0.009564909
0.003505019
0.009272334
0.004132891
0.01059271
0.003538304
0.01141851
0.003551455
0.01154332
0.0043496
0.01113315
0.004154584
0.0112251
0.003491349
0.0122401
0.003472598
0.01238647
0.004389979
0.01189457
0.004196268
0.01198484
0.003453733
0.01312347
0.003422499
0.01337362
0.004445596
0.01275034
0.004252901
0.01284771
0.003439043
0.01406662
0.003391033
0.01436857
0.004510115
0.01370275
0.004320912
0.01370168
0.003442908
0.01503603
0.003386469
0.01537867
0.004584296
0.01467185
0.004501841
0.01557476
0.003541236
0.01724705
0.003467108
0.01761227
0.00477022
0.01699652
0.004617355
0.01652399
0.003657473
0.01852006
0.003522595
0.01891202
0.004863367
0.01857701
0.004869387
0.01878946
0.003754764
0.02136337
0.003554643
0.0221515
0.00507216
0.02121905
0.003570606
0.02335843
0.005230651
0.02265881
0.0051304
0.02106857
0.003750751
0.02462004
0.003570437
0.02436036
0.005405426
0.02424792
0.005328416
0.02170473
0.00386775
0.02575778
0.005525145
0.02675232
0.003763241
0.03099481
0.003554833
0.03143043
0.005608004
0.03100968
0.005507478
0.02718247
0.003862692
0.03271304
0.003635088
0.008022458
0.03262438
0.005722703
-0.0001580655
0.006259148
0.001865585
0.0001709839
0.0007431255
-0.0005413309
-8.96287e-05
-0.0002498825
0.001231895
-0.0001173401
0.0001964156
-0.0002481036
-0.0006896256
9.436882e-05
-5.797922e-06
0.000654438
0.0007178429
0.0005940143
0.00145151
0.0007847567
0.0001132008
0.00200601
0.0004320758
0.0003539584
-0.0001302159
0.001423719
0.0005192937
-6.525367e-05
-0.0004295594
0.001681362
5.888723e-05
0.0004370152
-0.0006795124
-0.000485593
0.0001708769
0.0005058073
0.000780866
0.00164034
-0.0001609748
0.006140425
0.01071999
0.005679179
0.006485544
0.01127714
0.000922386
0.005711097
0.001558368
0.003683891
0.00151944
0.005367881
0.00628059
0.00150503
0.001408682
0.006105905
0.001514999
0.006051843
0.001499706
0.006265819
0.006261927
0.0015154
0.003692768
0.009447423
0.004306065
0.009417411
0.001553008
0.006403191
0.001569295
0.006381943
0.001466881
0.006379691
0.001565847
0.006413697
0.001574604
0.006508454
0.006449834
0.001585836
0.001488582
0.006489126
0.001583126
0.006526332
0.001600971
0.006613511
0.006519294
0.001605627
0.001553664
0.006757479
0.001639743
0.006778236
0.001657904
0.006875226
0.006704924
0.001661181
0.004418673
0.01458953
0.003468344
0.01619666
0.003409003
0.01647184
0.004671205
0.01599104
0.001732473
0.007190518
0.006929934
0.001738767
0.001695269
0.007244679
0.00176836
0.007215803
0.00177567
0.007359977
0.007036817
0.001784789
0.001753681
0.007437303
0.001817793
0.007382155
0.004740045
0.01760421
0.003702843
0.01987382
0.003543025
0.02036961
0.004959709
0.01996238
0.001891342
0.007747258
0.007290123
0.001895437
0.001899441
0.007898187
0.00193099
0.007756108
0.005003004
0.02018968
0.003716359
0.02301536
0.003538623
0.02548676
0.005641507
0.02583915
0.005419592
0.02264417
0.003937362
0.02703208
0.003495658
0.02696627
0.00579299
0.02744585
0.005539236
0.02547017
0.003817153
0.02940172
0.003518184
0.03049936
0.005596186
0.0295245
0.002476239
0.009451179
0.008317946
0.002479252
0.002553773
0.009862888
0.002516059
0.009218429
0.002557938
0.009576846
0.008388247
0.002562803
0.002649077
0.01006693
0.009414448
0.002616137
0.002180368
-5.310467e-05
0.0009653331
0.001075227
-0.0006835532
0.0002561155
0.001647864
-9.043655e-05
0.0001380811
0.0002759979
0.0005727323
0.0007938055
0.0007409861
-1.525334e-05
-0.0008917785
0.0003299739
0.0005948853
0.0002895885
-0.000250777
0.0009953534
0.01290366
0.01545731
0.01429702
0.01051487
0.02008763
0.01994082
0.0240273
0.01637691
0.02681421
0.02844814
0.02494531
0.02993484
0.03346527
0.03396766
0.03877229
0.03018654
0.04051728
0.04191135
0.03878185
0.04424849
0.04601652
0.04725111
0.05202662
0.04276602
0.05308779
0.0539748
0.05058009
0.05673607
0.05769436
0.05918115
0.06373364
0.05435119
0.0647784
0.06554267
0.06222959
0.06843306
0.06926435
0.07078168
0.07524784
0.06593517
0.07634465
0.07384438
0.07996666
0.009706806
0.003629078
0.009916038
0.004165558
0.01019397
0.00981191
0.003736256
0.004315724
0.01010682
0.01067083
0.004141206
0.003600692
0.01077211
0.004311638
0.01046225
0.003663514
0.02393202
0.003924797
0.02807948
0.00547327
0.02875678
0.005763611
0.02830366
0.003512909
6.400542e-05
0.0005559546
0.001114425
-0.0001475012
0.0004854531
0.0002330898
-0.0006763063
0.0009576226
0.0003022404
0.0005205635
-0.0001635832
6.439227e-05
1.839068e-05
-0.000132765
0.001124018
-0.0001164637
0.0009235186
0.0009535829
0.002084672
-0.0002331738
0.004674224
0.001107045
0.003197503
0.001943078
-0.003013351
0.00430027
1.320794e-05
0.000679005
0.005300366
0.009847658
0.008108536
0.006033419
0.0006854643
0.002966786
0.0001433457
0.005049627
0.001487172
0.005889669
0.005476498
0.001414811
0.001429986
0.006229706
0.006245888
0.001489784
0.001511918
0.006323728
0.001539977
0.006279535
0.00142282
0.006146755
0.006183556
0.001494497
0.001432262
0.006371457
0.006404058
0.001534468
0.001604382
0.00640644
0.001570786
0.006472878
0.001445333
0.006458681
0.006489082
0.00155066
0.001623618
0.006493421
0.001577126
0.006548279
0.001468135
0.006571092
0.006589209
0.001576191
0.001650442
0.006598081
0.001590338
0.006634271
0.001527505
0.006855349
0.006825686
0.001636609
0.001716966
0.006877417
0.001630156
0.006817733
0.001605806
0.007196881
0.007095506
0.00171848
0.00181015
0.007229462
0.001691285
0.007049979
0.001651257
0.007370843
0.007234297
0.001767935
0.001864961
0.007438399
0.001726002
0.007185176
0.001769978
0.007776109
0.007546303
0.00189233
0.002010596
0.007886177
0.001821637
0.007493507
0.002094772
0.008132392
0.001877707
0.007650397
0.002356662
0.009465993
0.008931555
0.002481834
0.002674945
0.009707585
0.002369869
0.008646944
0.00243724
0.009728522
0.009109655
0.002580389
0.002785413
0.009961936
0.002476023
0.008808311
0.001654206
0.009336865
0.001658473
0.009947296
0.009876671
0.00935758
0.003568033
0.004075116
0.007037571
0.004048325
0.002621523
0.009662282
0.008403206
0.002671347
0.01282681
0.01538521
0.01042841
0.01416615
0.0247651
0.02665073
0.02977492
0.02826439
0.03854743
0.04030297