/*--------------------------------*- C++ -*----------------------------------*\
  =========                 |
  \\      /  F ield         | OpenFOAM: The Open Source CFD Toolbox
   \\    /   O peration     | Website:  https://openfoam.org
    \\  /    A nd           | Version:  7
     \\/     M anipulation  |
\*---------------------------------------------------------------------------*/
FoamFile
{
    version     2.0;
    format      ascii;
    class       surfaceScalarField;
    location    "0.09";
    object      phi;
}
// * * * * * * * * * * * * * * * * * * * * * * * * * * * * * * * * * * * * * //

dimensions      [0 3 -1 0 0 0 0];

internalField   nonuniform List<scalar> 
270789
(
-0.06852622
5.544257e-05
-0.003012555
0.001354977
-0.002442985
0.0004721375
-0.000304797
0.01634763
0.01681594
0.01970062
0.01953981
-0.06773146
-0.0001593597
-0.0005509079
0.002275171
-0.002344576
0.0003064937
-0.0003215822
-0.06743096
-0.0005379881
-0.0002216437
0.00248134
-0.00225342
0.0004638095
-0.0002325932
-0.06707039
-0.0006790638
-8.76219e-05
0.002451854
-0.002243458
0.0004333676
-0.0002356506
-0.06662284
-0.0009960726
-7.695603e-05
0.002498851
-0.002180222
0.0004910609
-0.000184213
-0.0013713
-8.417837e-05
0.002514209
-0.002116338
0.0005275677
-0.0001354737
-0.06595732
-0.06831152
-0.000302975
-0.004302282
0.01692588
0.0168884
0.0196186
0.01953935
-0.06678631
-0.0003422305
-0.001342339
-0.06648011
-0.0006177859
-0.0002264048
-0.06615899
-0.000859767
-0.0001404199
-0.06578466
-0.001341298
-2.910146e-05
-0.00188929
-4.433818e-05
-0.06522233
-0.06813307
-0.0001713747
-0.004978273
0.01694543
0.0169197
0.01957373
0.01954088
-0.06665719
-0.0002996957
-0.001518415
-0.06630891
-0.0005933109
-0.0003727514
-0.06607879
-0.0009422552
-0.0001476351
-0.06583628
-0.001535545
-4.825477e-05
-0.002271887
-2.4564e-05
-0.06542912
-0.06816571
-2.51101e-05
-0.005027058
0.0169503
0.01694568
0.01957979
0.01957074
-0.06665489
-0.0001460181
-0.001664494
-0.0664037
-0.0004480952
-0.0003964058
-0.06629081
-0.0008717969
-0.000183354
-0.06622042
-0.001560608
-4.531842e-05
-0.002457211
-2.325215e-05
-0.06601185
-0.06825518
0.0001839143
-0.005112621
0.01697533
0.01697809
0.01960374
0.01960162
-0.06685342
0.0001387791
-0.001686554
-0.06673572
-0.0001407558
-0.0004250345
-0.06682823
-0.0005916971
-0.0001875907
-0.06698443
-0.001351682
-5.272584e-05
-0.002390583
-1.724767e-05
-0.06703381
-0.0683653
0.0005192845
-0.005144448
0.0169612
0.01699058
0.01961107
0.01961151
-0.06710344
0.0005823331
-0.001705407
-0.06719763
0.0003877816
-0.0004343474
-0.06753723
-5.133381e-05
-0.0002007624
-0.06799034
-0.0008438047
-5.476587e-05
-0.002000623
-1.943351e-05
-0.06836087
-0.06836854
0.001006865
-0.005177694
0.01690246
0.01697446
0.01959118
0.01959054
-0.06731451
0.001234562
-0.001706256
-0.06767204
0.001186357
-0.0004410387
-0.06834145
0.000819708
-0.0002016396
-0.06916351
3.448935e-05
-5.622548e-05
-0.001208895
-1.76798e-05
-0.06993756
-0.06819769
0.001654748
-0.005173488
0.01679566
0.0169052
0.01951702
0.01950541
-0.06739791
0.002136243
-0.001701458
-0.06808732
0.002320295
-0.0004445328
-0.06916372
0.002099361
-0.0002032515
-0.07045099
0.001377442
-5.568187e-05
8.400657e-05
-1.649917e-05
-0.07172739
-0.06775594
0.002490465
-0.005152979
0.01660995
0.01676392
0.01937219
0.01932714
-0.06727563
0.003341868
-0.001685933
-0.06836055
0.003847543
-0.0004423265
-0.06994125
0.003879011
-0.0001989554
-0.07181017
0.003300693
-5.432527e-05
0.002001285
-1.358808e-05
-0.07371386
-0.06694123
0.003542094
-0.005098615
0.01631996
0.01652552
0.01911209
0.01903065
-0.06684166
0.004907357
-0.001665054
-0.06840496
0.0058443
-0.0004334601
-0.0705905
0.006248708
-0.0001841582
-0.07317634
0.005928124
-4.158275e-05
0.004698958
-1.271071e-06
-0.07587274
-0.06561593
0.004846711
-0.004990486
0.01588647
0.01616221
0.01866921
0.01858391
-0.06596312
0.006894342
-0.001639795
-0.06811467
0.008418417
-0.0004225687
-0.07104567
0.009347403
-0.0001676912
-0.07452829
0.009435404
-2.466116e-05
0.008407468
9.386183e-06
-0.07824618
-0.06362628
0.006405799
-0.00481861
0.01528562
0.01563595
0.01801845
0.01794578
-0.06447394
0.00933651
-0.00159451
-0.06730805
0.01164842
-0.0003958985
-0.07112703
0.01329337
-0.0001269862
-0.07569831
0.01397012
3.657304e-05
0.01331411
8.51438e-05
-0.08069011
-0.06075053
0.008232924
-0.004580777
0.01446337
0.01488671
0.01711247
0.01704163
-0.06218287
0.0123136
-0.001544751
-0.06583412
0.01567748
-0.0003778025
-0.07076232
0.01833329
-0.0001117258
-0.07676381
0.01990894
6.265545e-05
0.01991073
0.0001215937
-0.08348202
-0.05679469
0.01028328
-0.004247863
0.0133812
0.01387086
0.01590834
0.01583178
-0.05882552
0.01576651
-0.00142209
-0.06332107
0.02048723
-0.0003141923
-0.06947314
0.02449258
-7.233403e-06
-0.0771572
0.02735994
0.000233052
0.02837654
0.0004105265
-0.08603354
-0.05147483
0.0125894
-0.003812681
0.01195661
0.0124986
0.01430441
0.01422178
-0.05412922
0.01974829
-0.001327393
-0.05958488
0.02627962
-0.0003367509
-0.06721523
0.0322141
-9.117402e-05
-0.0771258
0.03713698
0.000133526
0.04004467
0.0003352386
-0.08912918
-0.04464468
0.01504065
-0.00326211
0.01018431
0.01076671
0.01229415
0.01221038
-0.04779741
0.02399243
-0.001091414
-0.05396355
0.03274704
-0.0003012816
-0.06293123
0.04119167
-9.893732e-06
-0.07521259
0.04904717
0.0003711554
0.05491863
0.001004749
-0.0910913
-0.03577646
0.01753531
-0.002486504
0.007923644
0.008486666
0.009701748
0.009656239
-0.0393694
0.02894877
-0.001363385
-0.04605663
0.04052672
-0.001092465
-0.0561241
0.0525613
-0.001302176
-0.07102231
0.06521329
-0.001267897
0.07744666
-0.0008378133
-0.09271255
-0.02453643
0.00469609
-0.002527969
0.005210474
0.005323525
0.006637208
0.006603223
0.004389832
0.005768666
0.005970691
-0.02809083
0.008427895
-0.002818259
0.007526418
0.009587063
0.009780044
-0.03413196
0.01202019
-0.003998853
0.01083536
0.01372149
0.01398966
-0.04374363
0.01593774
-0.005114236
0.0144263
0.01825863
0.01866454
-0.05919268
0.02057271
-0.006191358
0.01855083
0.02358226
0.02414788
0.02596241
-0.006639349
0.02316345
0.02971237
0.03046565
-0.08441057
0.00348375
-0.003393258
-0.0004888913
0.001199049
0.001413867
0.001422472
0.0010591
0.004394116
-0.004034432
-0.000688614
0.002425927
0.002045904
0.002409626
0.001875367
0.005211473
-0.004954297
-0.0009481135
0.003512648
0.002961537
0.003493436
0.002743507
0.006569214
-0.006508354
-0.001228276
0.004718694
0.003979827
0.004713998
0.00369263
0.008866253
-0.009080552
-0.001584309
0.006165014
0.005211293
0.006182924
0.004812085
0.01261152
-0.01347055
-0.001957703
0.007941462
0.006720851
0.007971768
0.006145067
0.01906626
-0.002284017
0.00857846
0.01009403
-0.03176961
-0.02145925
0.01009281
0.00768131
2.798379e-05
-0.0002492678
-2.127359e-05
-3.39251e-05
4.708078e-05
-0.0004518768
-3.639934e-05
-6.584483e-05
7.585115e-05
-0.0006743536
-5.895736e-05
-0.0001029631
0.0001178881
-0.0009248293
-9.545574e-05
-0.0001421427
0.0001849987
-0.001229066
-0.0001566359
-0.0001854119
0.000305069
-0.001613753
-0.0002698336
-0.0002367852
0.00054729
-0.002126604
-0.0005025218
-0.0002989147
3.233298e-05
-0.0003770509
0.0005649586
-1.996684e-05
6.809088e-05
5.198824e-05
6.541601e-05
-0.0003857687
8.475261e-06
-0.00077243
0.0009633648
-9.218195e-06
6.671364e-05
3.643765e-05
5.020504e-05
-0.000343548
-7.795881e-06
-0.001200748
0.001402244
1.578125e-05
6.521309e-05
2.806781e-05
3.49755e-05
-0.0003377375
-1.391758e-05
-0.001661945
0.001906094
-1.827467e-05
7.908863e-05
3.335947e-05
3.405099e-05
-0.000358455
-1.817197e-05
-0.002145095
0.00238418
1.149061e-05
9.251763e-05
4.294279e-05
3.536264e-05
-0.0004032271
-1.301623e-05
-0.002658038
0.002958144
-1.016478e-06
0.0001186341
6.454441e-05
4.693361e-05
-0.0005161853
-1.677771e-06
-0.003275232
2.040429e-05
9.852865e-05
0.003635129
0.0001526826
6.453128e-05
-0.0006943664
0.0002401627
0.003458336
-0.01556326
-0.0002374058
7.932253e-05
-0.0004991207
3.051335e-05
-1.590626e-05
0.004432193
0.003649141
0.004426022
0.000509955
0.01554532
-0.01530625
-0.0001266128
-9.75202e-05
-0.0004966414
2.255784e-05
-5.080604e-05
0.0005043916
0.01550213
-0.01517238
-0.0001507605
-0.0001245085
-0.0005030171
5.884312e-06
-6.1741e-05
0.0005106699
0.01525603
-0.01492547
-0.0001395785
-0.0001714224
-0.0004935216
1.699148e-05
-5.369944e-05
0.0005121476
0.01502173
-0.01469636
-0.000160227
-0.0001653805
-0.0004853217
2.237726e-05
-4.89659e-05
0.0005088436
0.01478462
-0.01444798
-0.0001732419
-0.0001707503
-0.0004787476
2.496163e-05
-4.770884e-05
0.0005035495
0.014514
-0.0002010303
-0.0001677637
2.634522e-05
-0.01415555
-0.0004715472
-4.801055e-05
0.0004936064
0.0005750777
-0.01867259
-0.0004241552
-0.0004565262
1.025171e-05
0.0008537866
1.750991e-05
6.74356e-05
0.0009372468
5.113405e-05
-0.07628104
-0.000343835
-0.001560438
0.0001392153
-0.0001114833
-0.0001988265
-0.0003940722
0.01894533
0.01923428
0.01871545
0.01884286
-0.07631312
-0.000595964
-0.0002354542
0.0002235204
-5.822779e-05
0.0001909989
-4.370214e-05
-0.07611992
-0.0007699273
-0.0003063687
0.0003443554
-4.897368e-06
0.0002712917
5.070662e-05
-0.07574807
-0.0008691786
-0.0001124875
0.0002701694
-1.567753e-05
0.0002219455
4.575963e-05
-0.0752403
-0.001196218
-7.517364e-05
0.0003226847
3.426953e-05
0.0002416253
8.808414e-05
-0.001603836
-5.650338e-05
0.0003527222
7.810498e-05
0.0002733639
0.0001355339
-0.07450386
0.0009673588
0.0001879868
-0.01839616
-7.127184e-05
-0.001004223
-1.44751e-07
0.0009776151
2.953313e-08
-0.07807
-0.0001706719
-0.002174511
0.0191127
0.01911741
0.0187987
0.01874026
-0.07779332
-0.0004230088
-0.001791975
-0.0774784
-0.0007704457
-0.0005408078
-0.07707769
-0.001045089
-0.0003652159
-0.07659658
-0.001585516
-0.0001209112
-0.002198172
-0.0001093731
-0.07593721
0.00099209
-7.015409e-06
-0.01849628
1.689309e-05
-0.0013684
1.059657e-05
0.0009993842
6.612534e-06
-0.07815813
-0.0001742761
-0.00287163
0.01920264
0.01918987
0.01883755
0.01882503
-0.07775342
-0.000388307
-0.001957823
-0.0773717
-0.0007333698
-0.0007915494
-0.07707348
-0.001123129
-0.0003678162
-0.07675332
-0.001823987
-0.0001299384
-0.002647922
-5.771439e-05
-0.07627042
0.0009933865
-6.709605e-06
-0.01848074
1.584059e-05
-0.001417056
9.236816e-06
0.0009982245
5.055522e-06
-0.0783233
1.43169e-05
-0.003004714
0.01921309
0.01920757
0.01885062
0.01884108
-0.07782175
-0.0001879208
-0.002366429
-0.07749932
-0.0005405661
-0.0009116377
-0.07731206
-0.001008061
-0.000485684
-0.07718039
-0.001849627
-0.0001513443
-0.002855629
-6.739752e-05
-0.07692854
0.0009921129
-2.044684e-05
-0.01851165
2.843442e-05
-0.001405349
6.596276e-06
0.0009977507
2.213047e-06
-0.07840891
0.0002468381
-0.003148721
0.01924472
0.01923593
0.01886858
0.01886325
-0.07802719
0.0001486293
-0.002404826
-0.07782691
-0.0001813252
-0.000984546
-0.07786414
-0.0006668867
-0.0004915364
-0.0780014
-0.001605477
-0.0001596125
-0.00277696
-4.662025e-05
-0.0780507
0.0009895132
-3.425557e-05
-0.01848849
5.103671e-05
-0.001407288
4.513411e-06
0.0009970856
-6.97382e-07
-0.07851408
0.0006240987
-0.003200534
0.01923803
0.01922804
0.01887235
0.01885447
-0.07827307
0.0006709817
-0.00246876
-0.07831618
0.0004453349
-0.001017897
-0.07862535
-2.872021e-05
-0.0005297643
-0.07911259
-0.001005473
-0.0001675287
-0.002317742
-5.005582e-05
-0.07954118
0.0009844782
-6.255815e-05
-0.01843327
8.47134e-05
-0.001401011
5.590713e-07
0.0009950281
-5.342159e-06
-0.07849297
0.001151387
-0.003227296
0.01919875
0.01918331
0.01882945
0.01880377
-0.07847461
0.001425706
-0.002479337
-0.07882653
0.001387527
-0.001031309
-0.07951288
0.0009888931
-0.0005329003
-0.08043586
3.006004e-05
-0.0001687778
-0.001390329
-4.21217e-05
-0.08133883
0.0009762216
-0.0001042295
-0.01831753
0.0001331561
-0.001393406
-4.731644e-06
0.0009901725
-9.74601e-06
-0.07828396
0.001881253
-0.003199322
0.01909816
0.01906901
0.01872844
0.01868432
-0.07853601
0.002468034
-0.002491735
-0.07928062
0.00272223
-0.001034623
-0.08043238
0.002476428
-0.0005390289
-0.08190054
0.001610055
-0.0001675096
0.0001235944
-3.627673e-05
-0.08339469
0.0009636827
-0.0001572665
-0.01812203
0.0001935446
-0.001380431
-1.027735e-05
0.0009814509
-1.493538e-05
-0.07776046
0.002847524
-0.003156306
0.01891824
0.01885976
0.01854778
0.01847173
-0.07835554
0.003861754
-0.002484572
-0.07957833
0.00453071
-0.001028012
-0.0813124
0.004545586
-0.0005340379
-0.08345479
0.003859885
-0.0001617628
0.002365866
-2.661999e-05
-0.08568403
0.0009468403
-0.000218983
-0.01782057
0.0002609301
-0.001362407
-1.504974e-05
0.0009681129
-1.980081e-05
-0.0767951
0.004072604
-0.003096719
0.01862596
0.01853342
0.01826088
0.01814787
-0.07781474
0.005673603
-0.002457262
-0.07960917
0.006902401
-0.001010725
-0.08205289
0.007320002
-0.0005148506
-0.08502585
0.00693074
-0.0001394717
0.0055117
2.756565e-06
-0.08817571
0.000924184
-0.0002902932
-0.01737906
0.0003380782
-0.001338995
-1.846472e-05
0.000949367
-2.339604e-05
-0.0752371
0.005572675
-0.003007977
0.01818171
0.01805489
0.01782892
0.01768899
-0.07677077
0.007977732
-0.002410251
-0.07925596
0.009952828
-0.0009878069
-0.08257702
0.01096753
-0.0004941551
-0.08659866
0.01104535
-0.000117631
0.009829865
2.6803e-05
-0.09093424
0.0008925677
-0.000373723
-0.01675569
0.0004272663
-0.001305741
-2.134738e-05
0.0009215423
-2.663604e-05
-0.07291733
0.007371764
-0.002873739
0.01754632
0.01737855
0.0172119
0.01703659
-0.07503275
0.01082298
-0.002324336
-0.07831795
0.01377964
-0.0009375104
-0.08267733
0.01563371
-0.00043378
-0.08797011
0.0164081
-3.340478e-05
0.01558537
0.0001492604
-0.09378973
0.0008497342
-0.0004695873
-0.01589541
0.0005267986
-0.001258704
-2.485045e-05
0.0008822054
-3.046916e-05
-0.06961786
0.009508937
-0.002693163
0.01665956
0.0164453
0.01635101
0.01613721
-0.07240627
0.01429499
-0.002228353
-0.07665703
0.01855112
-0.0008985244
-0.08230988
0.02159794
-0.0004231073
-0.08926054
0.02344939
-2.797711e-05
0.02338413
0.0001521452
-0.09708986
0.0007935241
-0.0005718233
-0.01475209
0.0006332525
-0.001195781
-2.914591e-05
0.0008285837
-3.520524e-05
-0.06508923
0.01194726
-0.002441317
0.01547207
0.01521164
0.0151992
0.01496144
-0.06858724
0.01839399
-0.002023084
-0.07384691
0.02428527
-0.0007886747
-0.08092692
0.02894821
-0.0002774918
-0.08980689
0.0323588
0.0002036009
0.03355374
0.0005681538
-0.1001341
0.0007210338
-0.000679853
-0.01324294
0.0007352507
-0.001109404
-3.418765e-05
0.0007574384
-4.078083e-05
-0.05906695
0.01475698
-0.002119709
0.01389056
0.01359718
0.01366441
0.0134121
-0.06331681
0.02321754
-0.001901084
-0.06975923
0.03122356
-0.0008326176
-0.07857909
0.03817876
-0.0005018776
-0.08998895
0.04405389
-0.0001517176
0.04764293
8.888836e-05
-0.1038318
0.000632012
-0.000776844
-0.01135305
0.0008272255
-0.001000865
-3.917068e-05
0.0006684935
-4.546013e-05
-0.05123495
0.01775893
-0.001742541
0.01190296
0.0116006
0.01172904
0.01148082
-0.05612216
0.0285349
-0.001521565
-0.06349746
0.03907138
-0.0007738036
-0.07393493
0.04902241
-0.0004160776
-0.08808834
0.05845306
0.0001253932
0.0658235
0.001076019
-0.1063402
0.0005172431
-0.0008784913
-0.008935213
0.000886872
-0.0008367521
-4.437761e-05
0.0005530422
-5.04453e-05
-0.04117091
0.02100962
-0.001140268
0.009320098
0.009032363
0.009214662
0.009006868
-0.04633641
0.03413236
-0.001795359
-0.05436259
0.04771454
-0.001709446
-0.06621146
0.06188835
-0.002319257
-0.08332763
0.07697264
-0.002671308
0.0917595
-0.002981588
-0.1071199
0.0003837847
-0.0009483362
-0.006139948
0.0009400582
-0.0005773038
-4.20044e-05
0.0004170142
-4.456491e-05
-0.02802578
0.005457337
-0.001234314
0.006326057
0.006147922
0.006295476
0.006218193
0.005880268
0.005520746
0.005895743
-0.03203286
0.008841828
-0.001260982
0.009352825
0.008857689
0.009529818
-0.03914575
0.01287807
-0.002086267
0.0135328
0.01277881
0.01372518
-0.05082214
0.01731774
-0.002538294
0.01817094
0.0171151
0.01838502
-0.06981389
0.02261689
-0.002689336
0.02365602
0.02226338
0.02392607
0.02870709
-0.001654709
0.02987247
0.02813436
0.03024767
-0.1000006
0.000222441
-0.00352568
-0.0002585269
0.0003564255
0.0003501012
0.0003327111
0.0004327241
-0.001213542
-6.131072e-06
0.0001782268
4.853037e-06
6.887581e-05
0.003429609
-0.003339838
0.005220111
7.857929e-05
0.0001441539
0.003674698
-0.003882532
0.008815192
9.031647e-05
0.0003401055
0.004514465
-0.004990932
0.01291288
0.0001015434
0.0005585424
0.005943696
-0.006808256
0.01758831
3.544766e-05
0.0008183734
0.008382795
-0.009952647
0.02338015
-1.177428e-05
0.000947668
0.0126624
-0.01558413
0.03062204
5.912953e-05
0.0004864686
0.020382
0.0396764
0.0005897319
-0.03519317
-0.02594142
4.947345e-06
4.594002e-05
0.0001804958
1.397107e-05
6.447258e-05
4.773245e-05
6.61678e-05
9.827826e-06
-1.694987e-05
2.372612e-06
-0.0004189775
0.003561137
2.659068e-05
1.607409e-05
0.0001015613
-0.0004380239
-0.0004321581
0.000182526
0.0003079816
0.0001573403
0.0002449684
-0.002734004
-6.631029e-05
2.16804e-05
-0.0004588363
-0.000490527
0.00528906
-4.928871e-05
5.824695e-06
0.0001367633
0.0001869936
0.0003147276
0.0001231277
0.0003155891
-0.002737216
-7.694417e-05
5.24992e-05
0.007088476
-0.0001836797
-1.679571e-05
0.0001738274
0.0001447034
0.0003331787
0.0001411224
0.0003724068
-0.002777871
-5.353615e-05
6.722862e-05
0.008954093
-8.838e-05
-1.376356e-05
0.0001525096
0.0001255385
0.0003708567
0.0001511891
0.00040823
-0.0029572
-7.619008e-05
6.159311e-05
0.01112735
-5.972944e-05
-4.938352e-05
0.0001661199
0.0001242696
0.0004337399
0.0001725071
0.0004409747
-0.003375787
-9.679268e-05
7.082036e-05
-9.038629e-05
-4.206965e-05
0.0001836273
0.0001871883
0.0005561071
0.0001965831
0.0005136481
0.01383661
-0.004184173
-0.0001160565
8.627997e-05
0.003655641
5.490773e-05
-0.01572945
-0.0004639912
-6.215145e-06
0.004436156
0.003628147
0.004424806
-0.06570931
-0.001797303
-4.344932e-05
0.001101144
-0.00210911
0.0003862226
1.23654e-05
0.0149496
0.01889165
0.01552461
0.01879359
-0.0646353
-0.00121689
0.0001922655
0.001961354
-0.00199632
8.941196e-05
-0.0001038272
-0.0643295
-0.0004175212
-0.000188988
0.002108354
-0.001926298
0.0001658553
-4.720887e-05
-0.06370166
-0.0006950746
-4.535521e-05
0.002035534
-0.001927503
9.263035e-05
-8.806213e-05
-0.0007502637
-8.37848e-05
0.002028861
-0.0018911
0.0001039002
-8.003302e-05
-0.06302924
0.001058868
0.0002320991
-0.01868655
-0.001096674
-0.0001558513
2.939838e-05
0.001061763
3.129053e-05
-0.07458479
-0.0006643711
-0.0007642316
7.455551e-05
-0.0002836306
-1.947445e-05
-0.000233132
0.0186064
0.01894599
0.01856987
0.01879239
-0.07562974
-0.001017221
2.941167e-05
-0.07586605
-0.001059144
-0.0002278038
-0.0753852
-0.0009438074
-6.705222e-05
-0.07489813
-0.001214508
-4.280581e-05
-0.001546305
-3.160879e-05
-0.07412699
-0.07454551
-0.001063881
-0.001143859
0.001888589
-0.0001711289
0.003313292
-0.0001514527
0.002044448
-7.683531e-05
0.003488532
-9.012283e-05
-0.07600246
-0.0003026781
-0.001079264
-0.07682262
-0.0009069044
-0.001082122
-0.0769558
-0.0009690875
-0.0004976909
-0.07682326
-0.001137063
-0.0003044919
-0.07640917
-0.001633772
-0.0001157394
-0.00218897
-8.163467e-05
-0.07579425
-0.07478085
-7.157825e-05
-0.001843575
0.00366468
-0.0001219454
0.003779827
-9.40959e-05
-0.07629925
-0.0002194621
-0.001436457
-0.07738184
-0.0005296392
-0.001252493
-0.07749849
-0.0008400738
-0.0008039139
-0.07744495
-0.001198115
-0.0003603023
-0.0772137
-0.001857215
-0.0001377477
-0.002658019
-5.083131e-05
-0.07675153
-0.07496677
5.558834e-05
-0.0021141
0.003835222
-7.233834e-05
0.003844073
-6.433518e-05
-0.07664557
7.606305e-06
-0.001552989
-0.07759844
-0.0002975814
-0.001645611
-0.07774606
-0.0005871549
-0.001016942
-0.07783893
-0.001087885
-0.0005030444
-0.07780229
-0.001871404
-0.0001737885
-0.002884441
-5.518288e-05
-0.07758809
-0.07505693
0.0001744352
-0.002151727
0.003834439
-6.211933e-05
0.003843994
-5.826958e-05
-0.0767867
0.0002527982
-0.001664143
-0.07789175
0.0001145605
-0.001711911
-0.07814755
-0.0001847377
-0.001131163
-0.07846557
-0.000719798
-0.0005416067
-0.07869438
-0.001610966
-0.0001912364
-0.002806748
-3.777534e-05
-0.07878092
-0.07504508
0.0003276991
-0.002142569
0.003833341
-5.961472e-05
0.003846415
-6.265933e-05
-0.07693643
0.0006350095
-0.001691399
-0.07816224
0.0006590987
-0.001787489
-0.07864925
0.0004663883
-0.001182011
-0.07924836
-6.26903e-05
-0.0005877595
-0.07982596
-0.000996515
-0.0002043752
-0.002344019
-3.845489e-05
-0.08030029
-0.07487613
0.0005344305
-0.002132935
0.003819227
-6.373918e-05
0.003840369
-6.922836e-05
-0.07691737
0.001158351
-0.001709395
-0.07838489
0.001453409
-0.001806132
-0.07916719
0.001422457
-0.001205076
-0.08015171
0.0009871952
-0.0005982584
-0.0811648
5.625216e-05
-0.0002084488
-0.001401352
-3.031022e-05
-0.08211928
-0.07447411
0.0008023037
-0.002118042
0.003795851
-6.998647e-05
0.003828019
-7.796715e-05
-0.07671044
0.001887429
-0.001692073
-0.07845926
0.00253109
-0.001820594
-0.07962775
0.002769571
-0.001213242
-0.08108489
0.002512157
-0.0006068564
-0.08264763
0.001659681
-0.0002081917
0.0001389262
-2.283435e-05
-0.08420135
-0.07373963
0.001143425
-0.002093871
0.003754958
-7.922526e-05
0.003802196
-8.933454e-05
-0.07619296
0.002848841
-0.001664388
-0.07829495
0.003965988
-0.001817482
-0.07994051
0.004597144
-0.001210024
-0.08198858
0.004630383
-0.0006041925
-0.08423305
0.003944613
-0.00020222
0.002419941
-9.307308e-06
-0.08653138
-0.07256014
0.001566101
-0.002057997
0.00369258
-9.097994e-05
0.003760011
-0.0001036315
-0.07525676
0.004074849
-0.001626113
-0.07777222
0.00582178
-0.001797589
-0.07999616
0.007004637
-0.001194282
-0.08276294
0.007471712
-0.0005893953
-0.0858498
0.0070733
-0.0001813036
0.005629321
2.240163e-05
-0.08907882
-0.0707897
0.002080243
-0.002004266
0.003600475
-0.0001064882
0.003691029
-0.0001198555
-0.07375414
0.005605788
-0.00157448
-0.07675981
0.008177364
-0.001760162
-0.07969158
0.01011704
-0.001168439
-0.08335516
0.01121062
-0.0005694843
-0.08751353
0.01127096
-0.0001569264
0.01003296
5.654551e-05
-0.09194691
-0.0682738
0.002687409
-0.001929902
0.003472831
-0.0001254124
0.003590263
-0.000139306
-0.07150648
0.007462173
-0.001497454
-0.07506249
0.01109985
-0.001690814
-0.07881635
0.01404605
-0.001112654
-0.08353985
0.01601431
-0.000513974
-0.08898846
0.01677118
-8.502267e-05
0.01594805
0.0001617586
-0.09491605
-0.0648047
0.003397443
-0.001827138
0.003299515
-0.0001491375
0.003446513
-0.0001638208
-0.06833322
0.009693248
-0.001395727
-0.07253511
0.01468167
-0.001608273
-0.07730552
0.01897587
-0.001057934
-0.0833839
0.02215888
-0.0004893072
-0.09056529
0.02398603
-6.144068e-05
0.02391417
0.0001972896
-0.09857655
-0.06017561
0.004175813
-0.001694594
0.003074229
-0.000175436
0.003257141
-0.0001874607
-0.0639332
0.01226119
-0.001251671
-0.06879369
0.01896935
-0.001450286
-0.07461733
0.02494847
-0.0009376454
-0.08214151
0.02978035
-0.0003747804
-0.09123942
0.03319837
8.916789e-05
0.03449511
0.0004660774
-0.1017183
-0.05411272
0.005062439
-0.001511305
0.002779843
-0.0002043055
0.002996565
-0.0002140196
-0.0582019
0.01530089
-0.001070222
-0.06380909
0.02401675
-0.001341306
-0.07096255
0.03219785
-0.000928534
-0.08040703
0.0392764
-0.0005534516
-0.09234467
0.04519465
-0.0002103542
0.04891501
6.267453e-05
-0.1067384
-0.04643104
0.005983182
-0.001292394
0.002415802
-0.0002227481
0.002659828
-0.0002289208
-0.05046053
0.01844953
-0.0008616927
-0.05664755
0.02974223
-0.001060038
-0.06458435
0.04022357
-0.0008627196
-0.07537202
0.05030247
-0.0006544794
-0.08966605
0.05993342
-0.0003193465
0.06795453
0.0003539115
-0.1079835
-0.03668565
0.007511979
-0.0008318994
0.001915094
-0.0002603354
0.002135594
-0.0002500088
-0.04106862
0.02220849
-0.0005162571
-0.04685033
0.03482486
-0.001096273
-0.05518754
0.04799382
-0.001142496
-0.06761796
0.06200097
-0.001587333
-0.08569874
0.07715343
-0.001810549
0.09224991
-0.001944281
-0.1110314
-0.02545036
0.00234225
-0.0004642623
0.002553727
0.002806227
0.002580277
0.00117186
-0.0002284189
0.0009511776
-0.0001436879
-0.02681203
0.005527427
-0.0006097908
0.005869346
0.005599887
0.005948979
-0.03065447
0.03793636
-0.0005300488
-0.03698475
0.05324294
-0.001005106
-0.04763676
0.0713525
-0.001237815
-0.06524798
0.09333419
-0.001258868
0.1198907
-0.0004355394
-0.0941079
0.0003439663
-0.003207565
-0.0001320186
0.0004016466
0.0005512021
0.0004077562
0.0005522951
0.002787438
-0.0001775167
-0.002451802
0.005286822
8.248582e-05
-0.008945609
-0.0006873821
-4.770207e-05
-7.48982e-05
0.001257229
0.001764386
0.002547992
0.002131606
0.002570844
0.002663064
-0.01037008
-0.0008630736
-0.0001245834
-0.000118492
0.00276673
0.002529044
-0.01518013
-0.001481401
3.160881e-05
-1.249426e-06
0.003876463
0.003431478
-0.02438084
-0.001918448
0.0001354739
9.466119e-05
0.005200857
0.004505432
-0.002394132
0.0002885975
0.0001986795
0.007113489
0.005894138
-0.04239396
0.002957625
-0.0009615517
-0.0001903032
-0.0003129363
0.0001186385
-0.0007203295
-0.0008911431
0.003775592
-0.0007293656
-8.610506e-05
-0.0001809668
0.0001784708
0.004821451
-0.0009485393
-8.1921e-05
-0.0002489405
0.0002335421
0.00604492
-0.001118179
-0.0001231536
-0.0002415624
0.0002594255
-0.001270749
-0.0001480801
-0.0003760554
0.0002592916
0.007580513
4.203911e-05
-3.908942e-05
0.0001629271
2.844018e-05
5.94537e-05
4.38163e-05
6.008054e-05
-0.0003576674
0.003315782
4.740275e-05
-0.0004068637
-0.0004030532
0.0001409321
0.0002547298
0.0001503756
0.0003473226
-0.002505669
-0.0004550326
-0.000459336
0.004948578
1.911825e-05
-0.002662755
0.006794001
-0.0001013543
-0.002657114
0.008648775
-3.157886e-05
-0.002860115
0.01075854
-1.53398e-05
-0.003272334
6.827529e-06
0.01340257
-0.00401199
0.003723919
0.0001380286
-0.01589052
-0.0005150126
-8.181222e-05
0.004459652
0.003700593
0.004465155
-0.06663485
-0.002560394
-0.000167285
0.01574484
0.01893773
0.01576147
0.01887504
-0.06504273
-0.001369543
-3.030745e-05
-0.06472337
-0.0004329443
-7.540852e-05
-0.06410057
-0.0006453654
-2.278193e-05
-0.0007154345
-3.615576e-05
-0.06343277
0.001047846
9.520876e-06
-0.01863418
-0.001318761
-5.411005e-06
-4.24918e-06
0.00105193
-3.008223e-06
-0.07418472
-0.0006934265
-0.0002630537
-3.835313e-06
-0.0002023092
-1.267521e-05
-0.0001909918
0.01857454
0.01882918
0.01857191
0.01881114
-0.07558742
-0.001125047
-3.234654e-06
-0.07592305
-0.001143285
-0.0001184268
-0.07539265
-0.0009827686
-4.762285e-05
-0.07486786
-0.001188427
-2.454165e-05
-0.001513326
-2.040797e-05
-0.07408117
-0.07446501
-0.001365904
-4.527177e-06
0.003646409
-0.0001868514
0.003754895
-0.0001822791
-0.07555564
-0.0003296415
-0.0003524199
-0.07627748
-0.001020649
-0.0004646779
-0.07657295
-0.001090834
-0.0002546683
-0.07648782
-0.001190649
-0.0001817467
-0.07608333
-0.001642681
-6.597499e-05
-0.0021748
-4.569089e-05
-0.0754578
-0.07454332
-3.784448e-06
-5.483927e-05
-0.07568705
-0.0001842453
-0.00043813
-0.07687146
-0.0005400425
-0.000548688
-0.07741919
-0.0009068699
-0.0004401525
-0.07748154
-0.001243835
-0.0002447654
-0.07729021
-0.001877012
-9.474375e-05
-0.002665733
-3.756342e-05
-0.07681255
-0.07491224
8.863644e-05
-0.0001272245
-0.07614227
1.566552e-05
-0.0005228803
-0.07726626
-0.0003080753
-0.0007535891
-0.07794631
-0.0006322955
-0.0006114632
-0.07818978
-0.001110405
-0.0003930037
-0.07821029
-0.00189504
-0.0001352495
-0.002899074
-4.750151e-05
-0.07798463
-0.0749378
0.0001606314
-0.0001277039
-0.07627306
0.0002480421
-0.0005612685
-0.07760807
0.0001199941
-0.0008049651
-0.07845494
-0.0002123503
-0.0007042434
-0.07891899
-0.000722288
-0.0004656659
-0.07921841
-0.00162803
-0.0001588255
-0.002823214
-3.622153e-05
-0.07929583
-0.07494986
0.0002940374
-0.0001390203
-0.07645038
0.000642253
-0.0005850921
-0.07792164
0.0006541053
-0.0008503456
-0.07902111
0.0004535596
-0.0007484419
-0.07976525
-5.265606e-05
-0.0005132559
-0.08042128
-0.001002945
-0.0001734207
-0.002354932
-3.750858e-05
-0.08089051
-0.07477048
0.0004842469
-0.0001395791
-0.07642398
0.001178027
-0.0005916758
-0.07815416
0.001437501
-0.0008593432
-0.0795649
0.001426778
-0.0007675539
-0.08070302
0.001013371
-0.0005261619
-0.08180267
6.708327e-05
-0.0001788189
-0.001398673
-3.299107e-05
-0.08275625
-0.07437064
0.0007447315
-0.0001429859
-0.07621112
0.001916668
-0.0005902446
-0.07823377
0.002504432
-0.0008648723
-0.08004129
0.002796903
-0.0007758405
-0.08165951
0.002560032
-0.000535291
-0.08331794
0.00169775
-0.0001804248
0.0001657894
-2.903121e-05
-0.08487621
-0.07363498
0.001077267
-0.0001407965
-0.07568427
0.002885279
-0.0005837048
-0.07807151
0.00393374
-0.0008595519
-0.08036584
0.004656743
-0.0007755301
-0.08258813
0.004713019
-0.0005348824
-0.0849399
0.004025157
-0.0001778553
0.002487303
-2.100112e-05
-0.08724972
-0.07245525
0.001490648
-0.0001388007
-0.07474544
0.00412114
-0.0005717871
-0.07755608
0.005794487
-0.0008476934
-0.08043795
0.007111194
-0.0007668636
-0.08339633
0.007609078
-0.0005270792
-0.0866064
0.007219908
-0.0001659809
0.005762337
-2.231657e-06
-0.0898568
-0.07068247
0.001992343
-0.0001320518
-0.0732502
0.005666432
-0.0005520393
-0.07656225
0.008173588
-0.0008272174
-0.08016286
0.01029417
-0.0007508029
-0.08404406
0.01143561
-0.0005148217
-0.08834797
0.01151936
-0.000152473
0.01027245
1.743616e-05
-0.09281897
-0.0681578
0.002581774
-0.0001263926
-0.07101883
0.007551171
-0.0005211639
-0.07489702
0.01115217
-0.0007912043
-0.07933323
0.01433434
-0.0007166256
-0.08431021
0.01638044
-0.0004818189
-0.08993815
0.01717378
-0.0001114884
0.01635013
7.841826e-05
-0.09593249
-0.06468401
0.003269389
-0.0001189613
-0.06788427
0.009838077
-0.0004823703
-0.07242916
0.01483947
-0.0007506801
-0.07790849
0.01943796
-0.0006822235
-0.08429537
0.02274319
-0.0004651729
-0.09170155
0.02462473
-0.0001062167
0.02458445
8.664372e-05
-0.09982522
-0.060041
0.004025959
-0.000109618
-0.06352305
0.01249027
-0.0004218191
-0.06876845
0.01930173
-0.0006671473
-0.07534155
0.0256829
-0.0006094823
-0.08324867
0.03067659
-0.0004010464
-0.0926491
0.03415866
-4.432053e-05
0.0355374
0.0002085876
-0.1033446
-0.05397204
0.004906201
-9.616485e-05
-0.05785946
0.01566442
-0.0003569438
-0.0638913
0.02461342
-0.0006211572
-0.07188244
0.0333437
-0.0005981951
-0.08175731
0.04051432
-0.0005163025
-0.09404358
0.0465578
-0.0003232082
0.05050857
-0.0001608672
-0.1087912
-0.04625614
0.005843813
-8.148878e-05
-0.05014157
0.01895464
-0.000266474
-0.05677386
0.0306513
-0.0004656279
-0.0650861
0.04125634
-0.0004631099
-0.07606842
0.0512504
-0.0004082389
-0.09067892
0.0610893