/*--------------------------------*- C++ -*----------------------------------*\
  =========                 |
  \\      /  F ield         | OpenFOAM: The Open Source CFD Toolbox
   \\    /   O peration     | Website:  https://openfoam.org
    \\  /    A nd           | Version:  7
     \\/     M anipulation  |
\*---------------------------------------------------------------------------*/
FoamFile
{
    version     2.0;
    format      ascii;
    class       volScalarField;
    location    "0.04";
    object      epsilon;
}
// * * * * * * * * * * * * * * * * * * * * * * * * * * * * * * * * * * * * * //

dimensions      [0 2 -3 0 0 0 0];

internalField   nonuniform List<scalar> 
76598
(
0.004559479
0.004524902
0.00452108
0.004517819
0.004513864
0.004510074
0.004507075
0.004504992
0.0009415334
0.0009655995
0.0009726496
0.0009734825
0.0009731248
0.0009728961
0.0009729959
0.0009732178
0.000959703
0.001000236
0.001009911
0.001008649
0.001007212
0.001006511
0.00100679
0.001009179
0.0009653201
0.001008485
0.001015776
0.0009975413
0.0009973409
0.0009957257
0.0009902771
0.001005913
0.0009660643
0.001007227
0.0009976538
0.0009886499
0.002176479
0.002156359
0.0009609413
0.000961897
0.0009660971
0.00100651
0.0009985761
0.002180009
0.002038335
0.004343634
0.001967603
0.002019552
0.000966542
0.001007433
0.001000461
0.00217417
0.004360528
0.0009674717
0.001010152
0.001003765
0.0009991528
0.0009749075
0.0009594702
0.0009563971
0.0009563959
0.0009685287
0.001014983
0.001027611
0.00102722
0.001022669
0.001018407
0.001016686
0.001016028
0.0009693026
0.001018341
0.001035176
0.001038892
0.001038925
0.001038084
0.001037323
0.001036774
0.0009697229
0.001019476
0.001037453
0.001042547
0.001043879
0.001044008
0.001043714
0.001043323
0.000969935
0.001019942
0.001038287
0.001043836
0.001045588
0.001046029
0.001045917
0.001045605
0.0009700753
0.001020184
0.001038673
0.001044382
0.001046282
0.001046841
0.001046805
0.001046535
0.0009701716
0.00102033
0.001038875
0.001044647
0.001046602
0.001047203
0.001047196
0.00104694
0.0009702502
0.00102043
0.001039
0.001044793
0.001046768
0.001047382
0.001047384
0.001047131
0.0009703205
0.001020513
0.00103909
0.001044891
0.001046868
0.001047485
0.001047486
0.001047233
0.000970388
0.001020589
0.00103917
0.00104497
0.001046945
0.001047559
0.001047557
0.001047298
0.0009704552
0.001020663
0.001039245
0.001045044
0.001047013
0.001047622
0.001047615
0.001047349
0.0009705269
0.001020741
0.001039324
0.001045118
0.001047082
0.001047684
0.001047668
0.001047397
0.0009706042
0.001020825
0.001039408
0.001045197
0.001047156
0.001047749
0.001047725
0.001047444
0.0009706884
0.001020915
0.001039499
0.001045283
0.001047233
0.001047816
0.001047781
0.001047489
0.0009707819
0.001021015
0.001039596
0.001045369
0.00104731
0.001047878
0.00104783
0.001047524
0.0009708831
0.001021117
0.001039689
0.001045446
0.001047369
0.001047919
0.001047853
0.001047529
0.0009709891
0.001021211
0.001039761
0.001045488
0.001047381
0.001047903
0.001047813
0.001047468
0.002052171
0.0009736795
0.000987595
0.000992415
0.0009930472
0.0009927309
0.0009921751
0.0009915838
0.01159962
0.01159684
0.01159504
0.01159512
0.0115951
0.01159494
0.01159472
0.01159455
0.01159444
0.0115999
0.01159703
0.01159715
0.01159719
0.0115972
0.011597
0.01159664
0.01159638
0.01159625
0.01160018
0.0115973
0.01159747
0.01159707
0.01159574
0.01159548
0.01159587
0.01159585
0.01159603
0.01160058
0.01159769
0.01159796
0.01159548
0.01159465
0.01160179
0.01159976
0.01159515
0.01159551
0.01160109
0.01159814
0.01159852
0.01159533
0.01160643
0.01162802
0.01156828
0.01159039
0.01159181
0.01160163
0.01159839
0.01159891
0.01159618
0.01160754
0.01165877
0.00377076
0.003681177
0.0116021
0.01159841
0.01159877
0.01159785
0.01160062
0.01160196
0.01160064
0.01159936
0.01159886
0.01160249
0.01159837
0.01159856
0.01159887
0.01159918
0.01159956
0.01159941
0.01159869
0.01159873
0.0116028
0.01159837
0.01159849
0.01159864
0.0115988
0.01159896
0.01159867
0.01159873
0.01159857
0.01160304
0.01159837
0.01159844
0.01159853
0.01159861
0.01159868
0.01159861
0.0115985
0.01159857
0.01160324
0.0115984
0.01159843
0.01159848
0.01159853
0.01159857
0.01159853
0.01159848
0.01159846
0.01160343
0.01159842
0.01159845
0.01159847
0.0115985
0.01159853
0.01159853
0.01159846
0.01159847
0.0116036
0.01159847
0.01159848
0.01159849
0.01159851
0.01159853
0.01159853
0.01159847
0.01159847
0.01160376
0.01159851
0.01159852
0.01159852
0.01159854
0.01159855
0.01159856
0.01159849
0.01159849
0.01160392
0.01159857
0.01159857
0.01159857
0.01159858
0.01159859
0.01159859
0.01159853
0.01159853
0.01160408
0.01159863
0.01159863
0.01159862
0.01159863
0.01159864
0.01159864
0.01159858
0.01159857
0.01160425
0.01159871
0.0115987
0.01159869
0.0115987
0.01159871
0.01159871
0.01159864
0.01159863
0.01160445
0.01159879
0.01159879
0.01159878
0.01159878
0.01159879
0.01159879
0.01159871
0.0115987
0.01160466
0.01159889
0.01159889
0.01159887
0.01159888
0.01159888
0.01159888
0.0115988
0.01159878
0.0116049
0.011599
0.011599
0.01159899
0.011599
0.01159899
0.01159899
0.0115989
0.01159887
0.01160517
0.01159913
0.01159914
0.01159913
0.01159913
0.01159913
0.01159911
0.01159902
0.01159898
0.01160547
0.01159929
0.0115993
0.01159929
0.0115993
0.01159929
0.01159927
0.01159915
0.0115991
0.01160387
0.01159948
0.01159949
0.01159949
0.0115995
0.01159948
0.01159945
0.01159932
0.01159925
0.002069764
0.0009905869
0.001017169
0.001025396
0.001026815
0.001026531
0.001025772
0.001024829
0.01159968
0.01159858
0.0115968
0.01159687
0.01159686
0.01159671
0.01159649
0.01159632
0.01159622
0.01159874
0.01159872
0.01159881
0.01159883
0.01159885
0.01159866
0.0115983
0.01159805
0.01159791
0.01159894
0.011599
0.01159912
0.01159927
0.01159949
0.01159915
0.01159862
0.01159809
0.0115979
0.01159919
0.01159937
0.01159962
0.01160011
0.01160097
0.01160189
0.01159977
0.01159838
0.01158981
0.0115995
0.01159981
0.01160019
0.01160158
0.01160643
0.01162865
0.01156733
0.01159017
0.00125844
0.01159975
0.01160004
0.01160059
0.01160201
0.01160754
0.01165752
0.003760048
0.00124979
0.01159989
0.01160005
0.01160045
0.01160103
0.01160236
0.0116037
0.01160237
0.01160101
0.01159877
0.01159999
0.01160001
0.01160024
0.01160056
0.01160095
0.01160126
0.01160114
0.01160059
0.01160044
0.01160007
0.01160001
0.01160016
0.01160032
0.01160049
0.01160065
0.0116005
0.01160043
0.01160031
0.01160014
0.0116
0.01160011
0.01160021
0.01160029
0.01160037
0.01160034
0.0116003
0.01160025
0.01160021
0.01160003
0.0116001
0.01160016
0.01160022
0.01160026
0.01160025
0.01160025
0.01160022
0.01160028
0.01160006
0.01160011
0.01160015
0.01160019
0.01160022
0.01160023
0.01160023
0.01160021
0.01160034
0.0116001
0.01160014
0.01160017
0.0116002
0.01160022
0.01160023
0.01160023
0.01160022
0.01160041
0.01160015
0.01160018
0.0116002
0.01160022
0.01160024
0.01160025
0.01160025
0.01160025
0.01160048
0.0116002
0.01160023
0.01160024
0.01160026
0.01160028
0.01160029
0.01160029
0.01160028
0.01160055
0.01160026
0.01160029
0.0116003
0.01160032
0.01160033
0.01160034
0.01160034
0.01160033
0.01160062
0.01160033
0.01160036
0.01160037
0.01160039
0.01160039
0.0116004
0.0116004
0.01160039
0.0116007
0.01160042
0.01160044
0.01160045
0.01160047
0.01160047
0.01160048
0.01160047
0.01160046
0.0116008
0.01160051
0.01160054
0.01160055
0.01160056
0.01160057
0.01160057
0.01160056
0.01160054
0.0116009
0.01160062
0.01160065
0.01160066
0.01160068
0.01160068
0.01160068
0.01160066
0.01160064
0.01160103
0.01160075
0.01160079
0.0116008
0.01160081
0.01160081
0.0116008
0.01160078
0.01160074
0.01160117
0.0116009
0.01160095
0.01160096
0.01160098
0.01160097
0.01160096
0.01160092
0.01160087
0.01160134
0.01160109
0.01160114
0.01160115
0.01160117
0.01160116
0.01160114
0.01160109
0.01160102
0.002073028
0.0009969722
0.001027119
0.001037359
0.00103919
0.001038881
0.001037926
0.001036672
0.01159965
0.01159857
0.01159681
0.01159688
0.01159687
0.01159672
0.0115965
0.01159633
0.01159623
0.0115987
0.0115987
0.01159882
0.01159883
0.01159886
0.01159866
0.0115983
0.01159805
0.01159791
0.01159882
0.01159897
0.01159911
0.01159928
0.01159949
0.01159916
0.01159861
0.01159809
0.0115979
0.0115991
0.01159935
0.01159962
0.01160012
0.01160098
0.01160184
0.01159977
0.01159838
0.01158971
0.01159931
0.01159977
0.01160018
0.01160157
0.01160647
0.01162888
0.0115669
0.01158949
0.001321732
0.01159954
0.01159999
0.01160058
0.011602
0.01160759
0.01165717
0.003861979
0.001319272
0.01159971
0.0116
0.01160043
0.01160102
0.01160235
0.01160376
0.01160233
0.01160113
0.01159881
0.01159983
0.01159997
0.01160021
0.01160054
0.01160096
0.01160126
0.01160118
0.01160058
0.01160042
0.01159994
0.01159996
0.01160014
0.01160031
0.01160049
0.01160066
0.01160051
0.01160045
0.01160032
0.01160002
0.01159995
0.01160008
0.0116002
0.01160029
0.01160037
0.01160035
0.01160031
0.01160026
0.0116001
0.01159997
0.01160008
0.01160015
0.01160022
0.01160026
0.01160026
0.01160025
0.01160022
0.01160016
0.0116
0.01160009
0.01160014
0.01160019
0.01160022
0.01160023
0.01160023
0.01160021
0.01160023
0.01160004
0.01160012
0.01160016
0.01160019
0.01160022
0.01160023
0.01160023
0.01160022
0.01160029
0.01160008
0.01160015
0.01160019
0.01160022
0.01160024
0.01160025
0.01160025
0.01160025
0.01160036
0.01160014
0.0116002
0.01160024
0.01160026
0.01160028
0.01160029
0.01160029
0.01160028
0.01160043
0.0116002
0.01160026
0.01160029
0.01160032
0.01160033
0.01160034
0.01160034
0.01160033
0.0116005
0.01160027
0.01160033
0.01160036
0.01160039
0.0116004
0.0116004
0.0116004
0.01160039
0.01160058
0.01160034
0.01160042
0.01160045
0.01160047
0.01160048
0.01160048
0.01160047
0.01160046
0.01160066
0.01160044
0.01160051
0.01160054
0.01160056
0.01160057
0.01160057
0.01160056
0.01160054
0.01160076
0.01160054
0.01160062
0.01160066
0.01160068
0.01160068
0.01160068
0.01160066
0.01160064
0.01160087
0.01160067
0.01160076
0.01160079
0.01160082
0.01160082
0.01160081
0.01160078
0.01160074
0.011601
0.01160082
0.01160091
0.01160095
0.01160098
0.01160097
0.01160096
0.01160092
0.01160087
0.01160115
0.011601
0.0116011
0.01160115
0.01160117
0.01160117
0.01160114
0.01160109
0.01160102
0.002073631
0.0009982376
0.001029175
0.001039821
0.001041759
0.001041408
0.001040339
0.001038931
0.01159965
0.01159856
0.01159681
0.01159687
0.01159687
0.01159672
0.0115965
0.01159633
0.01159623
0.0115987
0.0115987
0.01159881
0.01159883
0.01159885
0.01159866
0.0115983
0.01159805
0.01159791
0.01159884
0.01159897
0.0115991
0.01159927
0.01159948
0.01159916
0.01159861
0.01159809
0.0115979
0.01159911
0.01159934
0.0115996
0.0116001
0.01160098
0.01160185
0.01159977
0.01159838
0.01158968
0.01159932
0.01159976
0.01160017
0.01160155
0.01160644
0.01162876
0.01156681
0.01158931
0.001349069
0.01159955
0.01159998
0.01160056
0.01160199
0.01160764
0.011657
0.003895419
0.001349163
0.01159972
0.01159999
0.01160041
0.01160102
0.01160237
0.01160379
0.01160233
0.01160122
0.01159882
0.01159984
0.01159995
0.01160019
0.01160054
0.01160096
0.01160126
0.01160119
0.01160056
0.0116004
0.01159994
0.01159994
0.01160011
0.0116003
0.01160049
0.01160067
0.01160052
0.01160045
0.01160032
0.01160003
0.01159993
0.01160006
0.01160018
0.01160028
0.01160037
0.01160035
0.01160031
0.01160026
0.0116001
0.01159996
0.01160005
0.01160014
0.01160021
0.01160026
0.01160026
0.01160025
0.01160022
0.01160017
0.01159998
0.01160006
0.01160012
0.01160018
0.01160022
0.01160023
0.01160023
0.01160021
0.01160024
0.01160002
0.01160009
0.01160014
0.01160018
0.01160021
0.01160023
0.01160023
0.01160022
0.0116003
0.01160007
0.01160012
0.01160017
0.01160021
0.01160023
0.01160025
0.01160025
0.01160024
0.01160037
0.01160012
0.01160017
0.01160021
0.01160025
0.01160027
0.01160028
0.01160029
0.01160028
0.01160043
0.01160018
0.01160023
0.01160027
0.0116003
0.01160032
0.01160033
0.01160034
0.01160033
0.01160051
0.01160025
0.0116003
0.01160034
0.01160037
0.01160039
0.0116004
0.0116004
0.01160039
0.01160059
0.01160033
0.01160038
0.01160042
0.01160045
0.01160047
0.01160048
0.01160047
0.01160046
0.01160067
0.01160042
0.01160048
0.01160052
0.01160055
0.01160056
0.01160057
0.01160056
0.01160054
0.01160077
0.01160053
0.01160059
0.01160063
0.01160066
0.01160068
0.01160067
0.01160066
0.01160063
0.01160089
0.01160066
0.01160072
0.01160077
0.0116008
0.01160081
0.0116008
0.01160078
0.01160074
0.01160102
0.01160081
0.01160088
0.01160093
0.01160096
0.01160097
0.01160095
0.01160092
0.01160087
0.01160117
0.01160099
0.01160107
0.01160112
0.01160116
0.01160116
0.01160114
0.01160109
0.01160102
0.002073297
0.0009973714
0.001027657
0.001037951
0.001039771
0.001039412
0.001038421
0.001037229
0.01159965
0.01159856
0.01159681
0.01159687
0.01159687
0.01159671
0.0115965
0.01159633
0.01159623
0.0115987
0.0115987
0.01159881
0.01159883
0.01159885
0.01159866
0.0115983
0.01159805
0.01159791
0.01159884
0.01159897
0.0115991
0.01159927
0.01159948
0.01159916
0.01159861
0.01159809
0.0115979
0.01159911
0.01159934
0.0115996
0.01160011
0.01160098
0.01160183
0.01159977
0.01159838
0.01158968
0.01159932
0.01159976
0.01160017
0.01160155
0.01160645
0.01162877
0.01156679
0.01158991
0.001349059
0.01159954
0.01159998
0.01160056
0.01160199
0.01160763
0.01165687
0.003899006
0.001349274
0.01159972
0.01159999
0.01160041
0.01160102
0.01160237
0.01160379
0.01160233
0.01160122
0.01159883
0.01159984
0.01159995
0.01160019
0.01160054
0.01160096
0.01160126
0.01160119
0.01160056
0.0116004
0.01159994
0.01159994
0.01160011
0.0116003
0.01160049
0.01160067
0.01160052
0.01160045
0.01160032
0.01160003
0.01159993
0.01160006
0.01160018
0.01160028
0.01160037
0.01160035
0.01160031
0.01160026
0.0116001
0.01159996
0.01160005
0.01160014
0.01160021
0.01160026
0.01160026
0.01160025
0.01160023
0.01160017
0.01159998
0.01160006
0.01160012
0.01160018
0.01160022
0.01160023
0.01160023
0.01160021
0.01160024
0.01160002
0.01160009
0.01160014
0.01160018
0.01160021
0.01160023
0.01160023
0.01160022
0.0116003
0.01160007
0.01160012
0.01160017
0.01160021
0.01160023
0.01160025
0.01160025
0.01160025
0.01160038
0.01160012
0.01160017
0.01160021
0.01160025
0.01160027
0.01160028
0.01160029
0.01160028
0.01160044
0.01160018
0.01160023
0.01160027
0.0116003
0.01160032
0.01160033
0.01160034
0.01160033
0.01160051
0.01160025
0.0116003
0.01160034
0.01160037
0.01160039
0.0116004
0.0116004
0.01160039
0.01160059
0.01160033
0.01160038
0.01160042
0.01160045
0.01160047
0.01160048
0.01160047
0.01160046
0.01160067
0.01160042
0.01160048
0.01160052
0.01160055
0.01160056
0.01160057
0.01160056
0.01160054
0.01160077
0.01160053
0.01160059
0.01160063
0.01160066
0.01160068
0.01160068
0.01160066
0.01160063
0.01160089
0.01160066
0.01160072
0.01160077
0.0116008
0.01160081
0.0116008
0.01160078
0.01160074
0.01160101
0.01160081
0.01160087
0.01160093
0.01160096
0.01160097
0.01160095
0.01160092
0.01160087
0.01160117
0.01160099
0.01160106
0.01160112
0.01160116
0.01160116
0.01160114
0.01160109
0.01160102
0.002072496
0.0009918657
0.001018863
0.001027238
0.001028657
0.001028299
0.001027564
0.0010277
0.01159965
0.01159857
0.01159681
0.01159687
0.01159686
0.01159671
0.01159649
0.01159632
0.01159622
0.0115987
0.0115987
0.01159882
0.01159883
0.01159886
0.01159867
0.0115983
0.01159805
0.01159791
0.01159882
0.01159897
0.01159911
0.01159928
0.01159949
0.01159916
0.01159861
0.01159809
0.0115979
0.0115991
0.01159935
0.01159961
0.01160012
0.01160098
0.01160184
0.01159977
0.01159838
0.01158971
0.01159931
0.01159977
0.01160018
0.01160157
0.01160648
0.01162886
0.01156675
0.01159008
0.00132159
0.01159952
0.01159999
0.01160057
0.01160201
0.01160758
0.01165699
0.003885847
0.001319796
0.01159974
0.01159999
0.01160044
0.01160102
0.01160235
0.01160376
0.01160233
0.01160113
0.01159881
0.01159985
0.01159996
0.01160021
0.01160054
0.01160096
0.01160126
0.01160118
0.01160058
0.01160042
0.01159992
0.01159996
0.01160013
0.01160031
0.01160049
0.01160066
0.01160051
0.01160045
0.01160032
0.01160002
0.01159995
0.01160008
0.01160019
0.01160029
0.01160037
0.01160035
0.01160031
0.01160026
0.0116001
0.01159997
0.01160007
0.01160015
0.01160021
0.01160026
0.01160026
0.01160025
0.01160023
0.0116002
0.01159999
0.01160008
0.01160014
0.01160018
0.01160022
0.01160023
0.01160023
0.01160021
0.01160027
0.01160003
0.01160011
0.01160015
0.01160019
0.01160022
0.01160023
0.01160023
0.01160022
0.01160029
0.01160009
0.01160014
0.01160019
0.01160022
0.01160024
0.01160025
0.01160025
0.01160025
0.01160034
0.01160013
0.0116002
0.01160023
0.01160026
0.01160028
0.01160029
0.01160029
0.01160028
0.01160042
0.01160019
0.01160026
0.01160029
0.01160031
0.01160033
0.01160034
0.01160034
0.01160033
0.01160049
0.01160026
0.01160033
0.01160036
0.01160038
0.01160039
0.0116004
0.0116004
0.01160039
0.01160057
0.01160034
0.01160041
0.01160044
0.01160046
0.01160047
0.01160048
0.01160047
0.01160046
0.01160066
0.01160043
0.0116005
0.01160054
0.01160056
0.01160057
0.01160057
0.01160056
0.01160054
0.01160076
0.01160054
0.01160061
0.01160065
0.01160067
0.01160068
0.01160068
0.01160066
0.01160064
0.01160087
0.01160067
0.01160075
0.01160078
0.01160081
0.01160081
0.0116008
0.01160078
0.01160074
0.011601
0.01160081
0.0116009
0.01160094
0.01160097
0.01160097
0.01160095
0.01160092
0.01160087
0.01160115
0.011601
0.01160109
0.01160114
0.01160117
0.01160116
0.01160114
0.01160109
0.01160102
0.002063791
0.0009767631
0.00099166
0.0009968916
0.0009975493
0.000997034
0.0009964091
0.0009972844
0.01159966
0.01159858
0.01159678
0.01159683
0.01159681
0.01159666
0.01159644
0.01159627
0.01159617
0.01159873
0.01159871
0.01159881
0.01159883
0.01159886
0.01159867
0.0115983
0.01159805
0.01159791
0.01159893
0.01159899
0.01159911
0.01159927
0.01159949
0.01159916
0.01159862
0.0115981
0.0115979
0.01159918
0.01159937
0.01159961
0.01160012
0.01160097
0.01160186
0.01159978
0.01159838
0.0115898
0.01159949
0.0115998
0.01160019
0.01160159
0.01160652
0.01162896
0.01156717
0.0115905
0.001257727
0.01159969
0.01160004
0.0116006
0.01160203
0.01160754
0.01165728
0.003819737
0.001251551
0.01159987
0.01160003
0.01160043
0.01160103
0.01160236
0.0116037
0.01160239
0.01160099
0.01159878
0.01159989
0.0116
0.01160023
0.01160057
0.01160095
0.01160126
0.01160114
0.01160059
0.01160044
0.01160007
0.01159999
0.01160016
0.01160032
0.01160049
0.01160065
0.0116005
0.01160043
0.01160031
0.0116001
0.01159999
0.0116001
0.0116002
0.01160029
0.01160037
0.01160034
0.0116003
0.01160025
0.0116002
0.01160002
0.01160009
0.01160015
0.01160021
0.01160026
0.01160026
0.01160025
0.01160022
0.01160032
0.01160005
0.01160009
0.01160014
0.01160019
0.01160022
0.01160023
0.01160023
0.01160021
0.01160031
0.01160006
0.01160012
0.01160015
0.01160019
0.01160022
0.01160023
0.01160023
0.01160022
0.01160038
0.0116001
0.01160016
0.01160018
0.01160022
0.01160024
0.01160025
0.01160025
0.01160025
0.01160049
0.01160018
0.01160022
0.01160023
0.01160026
0.01160028
0.01160029
0.01160029
0.01160028
0.01160051
0.01160025
0.01160028
0.01160029
0.01160031
0.01160033
0.01160034
0.01160034
0.01160033
0.01160059
0.01160032
0.01160035
0.01160036
0.01160038
0.01160039
0.0116004
0.0116004
0.01160039
0.01160067
0.0116004
0.01160043
0.01160044
0.01160046
0.01160047
0.01160048
0.01160047
0.01160046
0.01160076
0.01160049
0.01160052
0.01160054
0.01160056
0.01160057
0.01160057
0.01160056
0.01160054
0.01160086
0.0116006
0.01160064
0.01160065
0.01160067
0.01160068
0.01160068
0.01160066
0.01160064
0.01160099
0.01160073
0.01160077
0.01160078
0.01160081
0.01160081
0.01160081
0.01160078
0.01160074
0.01160113
0.01160089
0.01160092
0.01160094
0.01160097
0.01160097
0.01160096
0.01160093
0.01160087
0.01160129
0.01160107
0.01160111
0.01160114
0.01160117
0.01160116
0.01160114
0.0116011
0.01160102
0.002049267
0.002094364
0.002161518
0.002174087
0.002178716
0.00217154
0.00216459
0.002167738
0.01159955
0.01159683
0.01159685
0.01159687
0.01159685
0.0115967
0.01159648
0.0115963
0.01159619
0.01159983
0.01159702
0.01159713
0.01159719
0.0115972
0.01159699
0.01159658
0.01159637
0.01159624
0.01160011
0.0115973
0.01159748
0.01159712
0.01159577
0.01159543
0.01159571
0.01159573
0.01159594
0.01160055
0.01159769
0.01159795
0.01159548
0.01159463
0.01160184
0.01159976
0.01159838
0.01159556
0.01160098
0.01159817
0.01159851
0.01159536
0.01160655
0.01162909
0.01156716
0.01159017
0.01158836
0.01160153
0.01159851
0.01159887
0.01159622
0.01160751
0.01165853
0.00369155
0.003536267
0.01160228
0.01159851
0.01159878
0.01159773
0.01160061
0.01160195
0.0116007
0.01159934
0.01159889
0.01160004
0.01159829
0.01159857
0.01159886
0.01159925
0.01159957
0.01159942
0.01159882
0.01159873
0.01160265
0.01159836
0.01159846
0.01159864
0.0115988
0.01159897
0.01159865
0.01159869
0.0115986
0.01160274
0.01159835
0.01159843
0.01159852
0.0115986
0.01159868
0.01159863
0.01159852
0.01159857
0.01160295
0.01159843
0.01159842
0.01159848
0.01159853
0.01159857
0.01159853
0.01159849
0.01159847
0.01160401
0.01159837
0.01159845
0.01159846
0.0115985
0.01159853
0.01159853
0.01159847
0.01159848
0.01160027
0.01159833
0.01159849
0.01159848
0.01159851
0.01159853
0.01159853
0.01159848
0.01159847
0.01160036
0.01159848
0.01159849
0.01159852
0.01159853
0.01159855
0.01159855
0.01159849
0.0115985
0.01160383
0.01159856
0.01159855
0.01159856
0.01159857
0.01159859
0.01159859
0.01159853
0.01159853
0.01160383
0.0115986
0.01159863
0.01159862
0.01159863
0.01159864
0.01159864
0.01159858
0.01159858
0.01160381
0.01159867
0.01159869
0.01159868
0.0115987
0.0115987
0.01159871
0.01159865
0.01159864
0.01160403
0.01159877
0.01159877
0.01159877
0.01159878
0.01159878
0.01159879
0.01159872
0.01159871
0.01160416
0.01159886
0.01159886
0.01159886
0.01159888
0.01159888
0.01159888
0.0115988
0.01159879
0.01160439
0.01159898
0.01159898
0.01159898
0.01159899
0.01159899
0.01159898
0.01159889
0.01159888
0.01160462
0.01159911
0.01159912
0.01159912
0.01159913
0.01159913
0.01159911
0.01159901
0.01159902
0.01160492
0.01159926
0.01159928
0.01159928
0.0115993
0.01159924
0.0115992
0.01159902
0.01159913
0.01160531
0.01159947
0.01159948
0.01159949
0.01159949
0.01159947
0.01159944
0.01159927
0.01159933
0.004574979
0.004650115
0.004641694
0.002080601
0.002071786
0.004550691
0.004557318
0.004616578
0.01160235
0.0009386676
0.0009595041
0.0009667511
0.000968393
0.0009679131
0.0009668401
0.0009660007
0.0009667416
0.01160279
0.0009593295
0.0009988009
0.001008273
0.001007053
0.001004456
0.001002816
0.001002596
0.001002303
0.01160327
0.0009663746
0.001008433
0.001015367
0.0009968951
0.0009952486
0.0009834854
0.0009928248
0.000985578
0.01160464
0.0009686581
0.00100786
0.0009976781
0.0009883945
0.01158822
0.0115916
0.01159067
0.0009591958
0.01159776
0.0009691814
0.001007364
0.0009987486
0.01158663
0.01161262
0.0115697
0.01158809
0.0115849
0.01160602
0.0009689333
0.001008154
0.001000681
0.0115934
0.01165928
0.01160898
0.0009698495
0.001010966
0.001004031
0.0009992454
0.0009753575
0.0009618482
0.000958239
0.0009580732
0.01159598
0.0009726903
0.001016054
0.001027946
0.001027364
0.001022876
0.001018807
0.001017226
0.001016581
0.01159682
0.0009725572
0.001019327
0.001035497
0.001039016
0.001039007
0.001038171
0.001037425
0.001036883
0.01160886
0.0009726828
0.001020241
0.001037745
0.001042661
0.001043925
0.001044022
0.001043712
0.001043316
0.0116092
0.0009724214
0.001020711
0.001038601
0.001043965
0.001045642
0.001046042
0.001045907
0.001045585
0.01161197
0.0009736832
0.001021339
0.001039087
0.001044546
0.001046353
0.001046866
0.001046809
0.001046527
0.01159308
0.0009766963
0.001021982
0.001039404
0.001044843
0.001046684
0.001047236
0.001047207
0.001046941
0.01159291
0.0009769205
0.001022102
0.001039529
0.00104499
0.00104685
0.001047416
0.001047396
0.001047136
0.01159503
0.0009740838
0.001021697
0.001039496
0.00104505
0.001046935
0.001047514
0.001047497
0.001047235
0.01161212
0.0009721043
0.001021226
0.001039425
0.001045078
0.00104699
0.001047575
0.001047559
0.001047297
0.01159231
0.000971674
0.001021075
0.00103941
0.001045111
0.001047034
0.001047624
0.001047606
0.001047341
0.01161232
0.0009721269
0.001021172
0.001039462
0.001045155
0.001047075
0.001047663
0.001047642
0.001047374
0.01159077
0.0009722983
0.001021247
0.00103951
0.001045193
0.001047108
0.001047688
0.001047665
0.001047397
0.01161312
0.0009727182
0.001021303
0.001039544
0.001045198
0.001047093
0.00104767
0.001047653
0.001047397
0.01161281
0.0009727733
0.001021358
0.001039508
0.001045085
0.001046947
0.001047526
0.001047552
0.00104734
0.01161604
0.0009726569
0.001021302
0.001039219
0.001044596
0.001046344
0.001046978
0.001047165
0.001047123
0.01161356
0.0009725493
0.001020683
0.001037844
0.001042518
0.001043954
0.001044791
0.00104564
0.001046322
0.004884909
0.001942497
0.004648455
0.01160302
0.01159567
0.004525628
0.001984179
0.002054678
0.002055695
0.002107674
0.01157351
0.01158483
0.004521849
0.002074436
0.002084317
0.002077925
0.002126869
0.01155826
0.01157458
0.004518359
0.002086794
0.00208749
0.002138514
0.002144825
0.01155854
0.0115676
0.004514512
0.002087723
0.002087199
0.002145753
0.002145933
0.01155394
0.01156549
0.004510689
0.002087143
0.00208655
0.0021457
0.002145199
0.01155658
0.01156577
0.004507597
0.002086447
0.002086048
0.002144885
0.002144411
0.01156388
0.01157042
0.004505355
0.002085959
0.002085688
0.00214412
0.002143707
0.01157032
0.01157453
0.004503823
0.00208558
0.002085297
0.002143481
0.002143197
0.01157565
0.01157811
0.001929548
0.001979321
0.01160212
0.01144431
0.01160289
0.01144334
0.001991061
0.001997492
0.01160245
0.01143252
0.01160322
0.01143232
0.001999137
0.001999839
0.01160302
0.01141303
0.01160408
0.01141238
0.002000587
0.002000665
0.01160386
0.01138584
0.01160522
0.01138528
0.002001506
0.002001544
0.01160492
0.01134982
0.01160645
0.0113494
0.004324733
0.004341152
0.01161262
0.01164654
0.01166859
0.001995662
0.01156953
0.01157691
0.00201194
0.01158109
0.01158456
0.002021041
0.01158507
0.01158699
0.00200254
0.002002629
0.01160604
0.01130816
0.01160744
0.01130738
0.00208745
0.002023674
0.01165906
0.01133145
0.01142148
0.001971524
0.001952077
0.01142902
0.01154478
0.001951704
0.001951799
0.01150926
0.01155945
0.001951557
0.00195125
0.0115222
0.01156045
0.002003563
0.002003704
0.01160694
0.01127011
0.01160823
0.01126898
0.002004456
0.00200459
0.01160764
0.01123913
0.01160892
0.01123809
0.002005197
0.002005304
0.01160827
0.011213
0.01160947
0.01121268
0.002005769
0.002005851
0.01160877
0.0111926
0.01160993
0.01119241
0.002006235
0.002006297
0.01160919
0.01117532
0.01161032
0.01117533
0.002006621
0.002006675
0.01160955
0.01116085
0.01161067
0.01116082
0.002006962
0.002007009
0.01160988
0.01114792
0.01161099
0.01114789
0.002007275
0.002007318
0.01161018
0.01113592
0.0116113
0.01113587
0.002007576
0.002007618
0.01161047
0.01112431
0.01161162
0.01112426
0.002007876
0.002007918
0.01161076
0.01111262
0.01161194
0.0111126
0.002008188
0.002008231
0.01161106
0.0111005
0.01161227
0.01110051
0.002008519
0.002008564
0.01161137
0.01108761
0.01161264
0.01108764
0.002008878
0.002008926
0.01161171
0.01107361
0.01161304
0.01107367
0.002009273
0.002009326
0.01161208
0.01105819
0.01161349
0.01105826
0.002009715
0.002009774
0.0116125
0.011041
0.01161399
0.01104107
0.00201021
0.002010278
0.01161296
0.01102167
0.01161456
0.01102173
0.002010772
0.002010849
0.01161461
0.01099974
0.01161518
0.01099979
0.00464716
0.01160222
0.01159919
0.004659418
0.01160261
0.01159919
0.01163367
0.0116669
0.01162904
0.01163261
0.01166929
0.01161918
0.01163096
0.01165857
0.01161901
0.01162849
0.004660853
0.0116021
0.01159912
0.004662464
0.01160242
0.01159913
0.01163362
0.01166573
0.01162892
0.01163373
0.01166801
0.01161922
0.01162957
0.01165733
0.01161906
0.01162927
0.004662571
0.01160208
0.01159911
0.004663821
0.01160242
0.01159911
0.01163283
0.01166557
0.01162884
0.01163249
0.01166776
0.01161909
0.0116294
0.01165697
0.01161902
0.01162948
0.004663204
0.01160208
0.01159911
0.004663407
0.01160243
0.01159911
0.01163256
0.01166547
0.01162877
0.01163247
0.01166759
0.01161907
0.01162942
0.01165685
0.01161908
0.01162947
0.004662766
0.01160208
0.01159912
0.004663513
0.01160243
0.01159911
0.01163241
0.01166531
0.01162876
0.01163254
0.01166777
0.01161908
0.01162946
0.01165698
0.01161908
0.01162944
0.004662914
0.01160207
0.01159912
0.004660069
0.01160243
0.01159912
0.01163253
0.01166548
0.01162888
0.01163287
0.01166785
0.01161903
0.01162948
0.0116571
0.0116191
0.01162939
0.004660334
0.01160207
0.01159915
0.004656313
0.01160246
0.01159916
0.01163375
0.01166565
0.01162866
0.01163381
0.01166801
0.01161908
0.01162932
0.01165743
0.01161921
0.01162928
0.004654638
0.0116023
0.0115992
0.00455678
0.01160249
0.01159921
0.01163308
0.01166696
0.01162805
0.01163488
0.01166933
0.01161896
0.01162881
0.01165896
0.01161887
0.01163036
0.004756662
0.01160279
0.01159565
0.00191142
0.004677195
0.01156849
0.01159069
0.001922914
0.001978325
0.004594187
0.01156524
0.01158951
0.00199753
0.002009415
0.004559945
0.01156074
0.01158305
0.002009491
0.002034628
0.002072117
0.01156256
0.01157038
0.004880723
0.004525534
0.002058533
0.002071718
0.002078988
0.01156304
0.01156955
0.004524601
0.004872741
0.002071809
0.002057709
0.004619438
0.01157011
0.01157931
0.00203507
0.00201636
0.00454769
0.01158159
0.01158529
0.002015975
0.002034237
0.01144439
0.01160284
0.01144386
0.001923338
0.001977971
0.01143186
0.01160307
0.0114313
0.001993577
0.002006008
0.0114129
0.01160381
0.01141198
0.002004062
0.002013235
0.01138271
0.01159836
0.01138974
0.002042872
0.004354513
0.002068644
0.01135583
0.01159809
0.01135225
0.004352853
0.00207629
0.004324711
0.002069391
0.01164736
0.01166654
0.002037277
0.004306378
0.004341162
0.01158266
0.004290633
0.004293458
0.01158776
0.004329037
0.001997156
0.01158708
0.001966943
0.002009179
0.01130393
0.01160938
0.01130537
0.004328374
0.002045816
0.002017312
0.0113268
0.01141779
0.004360842
0.002087703
0.002024734
0.01151358
0.01157037
0.001956737
0.001962948
0.0115265
0.01156318
0.001971889
0.001951756
0.01126346
0.01159849
0.01127824
0.002016676
0.002031608
0.01124778
0.01159569
0.01123671
0.002053147
0.004295908
0.00206975
0.01122164
0.01161208
0.01120438
0.004347771
0.002071969
0.002049004
0.01118718
0.01160824
0.011181
0.002028326
0.004067723
0.002035596
0.0111678
0.01161238
0.01117414
0.00202622
0.002015094
0.01115402
0.01159599
0.01117175
0.002036514
0.00432945
0.002069236
0.01114625
0.01159357
0.01114339
0.004365555
0.002088998
0.00438249
0.002094606
0.01113657
0.0115925
0.01113063
0.004383057
0.00209508