/*--------------------------------*- C++ -*----------------------------------*\
  =========                 |
  \\      /  F ield         | OpenFOAM: The Open Source CFD Toolbox
   \\    /   O peration     | Website:  https://openfoam.org
    \\  /    A nd           | Version:  7
     \\/     M anipulation  |
\*---------------------------------------------------------------------------*/
FoamFile
{
    version     2.0;
    format      ascii;
    class       volScalarField;
    location    "0.04";
    object      nut;
}
// * * * * * * * * * * * * * * * * * * * * * * * * * * * * * * * * * * * * * //

dimensions      [0 2 -1 0 0 0 0];

internalField   nonuniform List<scalar> 
109978
(
0.0006594533
0.0006410535
0.0006391928
0.0006387885
0.0006386085
0.0006386364
0.0006412504
0.0006090192
0.0006057859
0.0006052512
0.0006051221
0.0006052539
0.0006393349
0.0006056757
0.000602079
0.0006014758
0.0006013669
0.0006015701
0.0006388542
0.0006050375
0.0006013765
0.0006007626
0.0006006755
0.0006009198
0.0006385678
0.0006047321
0.0006010605
0.0006004506
0.0006003771
0.0006006422
0.0006383486
0.000604517
0.0006008514
0.0006002533
0.0006001889
0.0006004698
0.0006381652
0.0006043419
0.0006006805
0.0006000895
0.0006000368
0.0006003295
0.0006380071
0.0006041903
0.0006005354
0.0005999518
0.0005999093
0.0006002087
0.0006378679
0.0006040568
0.0006004064
0.0005998286
0.0005997919
0.0006000986
0.0006377438
0.0006039372
0.0006002908
0.000599717
0.0005996851
0.0005999982
0.0006376322
0.0006038302
0.0006001858
0.0005996152
0.0005995867
0.0005999058
0.000637531
0.0006037326
0.0006000899
0.0005995221
0.0005994965
0.0005998185
0.0006374387
0.0006036432
0.0006000018
0.0005994363
0.000599413
0.0005997374
0.0006373547
0.0006035607
0.0005999212
0.000599357
0.0005993353
0.0005996617
0.0006372786
0.0006034847
0.0005998465
0.0005992834
0.000599263
0.0005995911
0.0006372083
0.0006034144
0.0005997772
0.0005992151
0.000599196
0.0005995255
0.0006371432
0.0006033493
0.0005997132
0.0005991521
0.0005991347
0.0005994648
0.0006370829
0.0006032895
0.0005996549
0.0005990954
0.0005990788
0.0005994096
0.0006370275
0.000603236
0.000599604
0.000599047
0.0005990312
0.0005993623
0.0006369791
0.0006031943
0.0005995684
0.0005990155
0.000599001
0.0005993326
0.0006369496
0.0006031894
0.0005995801
0.0005990364
0.0005990245
0.0005993553
0.0006369897
0.0006033019
0.000599736
0.0005992114
0.0005992004
0.0005995191
0.0001009634
0.000603603
0.0006001044
0.0005996079
0.000599586
0.000599854
0.0001016905
0.0001011058
0.0001010888
0.0001010685
0.0001010514
0.0001010366
0.0001010096
0.0001009605
0.0001009599
0.0001009441
0.0001009376
0.0001009345
0.0001009684
0.0001009518
0.0001009428
0.0001009379
0.0001009352
0.0001009336
0.0001009465
0.0001009422
0.0001009403
0.0001009378
0.0001009362
0.0001009348
0.0001009407
0.0001009383
0.0001009363
0.0001009347
0.0001009336
0.0001009326
0.0001009373
0.000100935
0.0001009344
0.0001009336
0.0001009329
0.0001009323
0.0001009356
0.0001009333
0.0001009329
0.0001009324
0.000100932
0.0001009315
0.0001009344
0.0001009321
0.0001009319
0.0001009316
0.0001009313
0.0001009311
0.0001009336
0.0001009312
0.0001009311
0.0001009309
0.0001009308
0.0001009306
0.000100933
0.0001009306
0.0001009306
0.0001009305
0.0001009304
0.0001009302
0.0001009325
0.0001009301
0.0001009301
0.0001009301
0.00010093
0.0001009299
0.0001009321
0.0001009298
0.0001009298
0.0001009297
0.0001009297
0.0001009297
0.0001009318
0.0001009295
0.0001009295
0.0001009295
0.0001009295
0.0001009294
0.0001009315
0.0001009293
0.0001009293
0.0001009293
0.0001009293
0.0001009292
0.0001009312
0.0001009291
0.0001009291
0.0001009291
0.0001009291
0.0001009291
0.000100931
0.0001009289
0.0001009289
0.0001009289
0.0001009289
0.0001009289
0.0001009308
0.0001009288
0.0001009288
0.0001009288
0.0001009288
0.0001009288
0.0001009307
0.0001009286
0.0001009287
0.0001009287
0.0001009287
0.0001009287
0.0001009305
0.0001009285
0.0001009286
0.0001009286
0.0001009286
0.0001009286
0.0001009304
0.0001009285
0.0001009285
0.0001009285
0.0001009285
0.0001009285
0.0001009302
0.0001009284
0.0001009284
0.0001009284
0.0001009284
0.0001009284
0.0001009301
0.0001009283
0.0001009283
0.0001009283
0.0001009283
0.0001009284
0.00010093
0.0001009282
0.0001009283
0.0001009283
0.0001009283
0.0001009283
0.0001009298
0.0001009282
0.0001009282
0.0001009282
0.0001009282
0.0001009282
0.0001018432
0.00010106
0.0001010542
0.000101043
0.0001010329
0.0001010236
0.0001009816
0.0001009528
0.0001009599
0.0001009427
0.0001009364
0.0001009334
0.000100966
0.0001009515
0.0001009424
0.0001009375
0.0001009345
0.0001009329
0.0001009359
0.0001009414
0.0001009403
0.0001009381
0.0001009363
0.0001009349
0.0001009347
0.000100938
0.0001009361
0.0001009346
0.0001009334
0.0001009325
0.0001009328
0.0001009347
0.0001009343
0.0001009335
0.0001009329
0.0001009322
0.0001009322
0.0001009331
0.0001009328
0.0001009323
0.0001009318
0.0001009314
0.0001009317
0.0001009319
0.0001009318
0.0001009315
0.0001009312
0.0001009309
0.0001009314
0.0001009311
0.000100931
0.0001009309
0.0001009307
0.0001009305
0.0001009311
0.0001009305
0.0001009305
0.0001009304
0.0001009303
0.0001009301
0.0001009309
0.00010093
0.0001009301
0.00010093
0.0001009299
0.0001009298
0.0001009307
0.0001009297
0.0001009297
0.0001009297
0.0001009296
0.0001009296
0.0001009305
0.0001009294
0.0001009294
0.0001009294
0.0001009294
0.0001009293
0.0001009303
0.0001009292
0.0001009292
0.0001009292
0.0001009292
0.0001009292
0.0001009302
0.000100929
0.000100929
0.000100929
0.000100929
0.000100929
0.0001009301
0.0001009288
0.0001009289
0.0001009289
0.0001009289
0.0001009288
0.00010093
0.0001009287
0.0001009287
0.0001009287
0.0001009287
0.0001009287
0.0001009298
0.0001009286
0.0001009286
0.0001009286
0.0001009286
0.0001009286
0.0001009297
0.0001009285
0.0001009285
0.0001009285
0.0001009285
0.0001009285
0.0001009296
0.0001009284
0.0001009284
0.0001009284
0.0001009284
0.0001009284
0.0001009296
0.0001009283
0.0001009283
0.0001009283
0.0001009283
0.0001009284
0.0001009295
0.0001009282
0.0001009283
0.0001009283
0.0001009283
0.0001009283
0.0001009294
0.0001009282
0.0001009282
0.0001009282
0.0001009282
0.0001009282
0.0001009293
0.0001009281
0.0001009281
0.0001009281
0.0001009282
0.0001009282
0.0001018502
0.000101032
0.0001010444
0.0001010414
0.0001010303
0.0001010203
0.000100978
0.0001009505
0.0001009614
0.0001009428
0.0001009365
0.0001009334
0.0001009657
0.0001009516
0.0001009424
0.0001009373
0.0001009343
0.0001009326
0.0001009364
0.0001009413
0.00010094
0.0001009378
0.0001009362
0.0001009347
0.0001009347
0.0001009379
0.0001009361
0.0001009345
0.0001009333
0.0001009324
0.0001009329
0.0001009346
0.0001009342
0.0001009335
0.0001009328
0.0001009322
0.0001009322
0.0001009331
0.0001009328
0.0001009323
0.0001009318
0.0001009314
0.0001009317
0.0001009319
0.0001009318
0.0001009315
0.0001009312
0.0001009309
0.0001009313
0.0001009311
0.000100931
0.0001009309
0.0001009307
0.0001009305
0.0001009311
0.0001009305
0.0001009305
0.0001009304
0.0001009303
0.0001009301
0.0001009308
0.00010093
0.0001009301
0.00010093
0.0001009299
0.0001009298
0.0001009306
0.0001009297
0.0001009297
0.0001009297
0.0001009296
0.0001009296
0.0001009304
0.0001009294
0.0001009294
0.0001009294
0.0001009294
0.0001009293
0.0001009303
0.0001009292
0.0001009292
0.0001009292
0.0001009292
0.0001009292
0.0001009301
0.000100929
0.000100929
0.000100929
0.000100929
0.000100929
0.00010093
0.0001009288
0.0001009289
0.0001009289
0.0001009289
0.0001009288
0.0001009299
0.0001009287
0.0001009287
0.0001009287
0.0001009287
0.0001009287
0.0001009298
0.0001009286
0.0001009286
0.0001009286
0.0001009286
0.0001009286
0.0001009297
0.0001009285
0.0001009285
0.0001009285
0.0001009285
0.0001009285
0.0001009296
0.0001009284
0.0001009284
0.0001009284
0.0001009284
0.0001009284
0.0001009295
0.0001009283
0.0001009283
0.0001009283
0.0001009283
0.0001009284
0.0001009294
0.0001009282
0.0001009283
0.0001009283
0.0001009283
0.0001009283
0.0001009294
0.0001009282
0.0001009282
0.0001009282
0.0001009282
0.0001009282
0.0001009293
0.0001009281
0.0001009281
0.0001009281
0.0001009282
0.0001009282
0.0001018015
0.0001010239
0.0001010405
0.0001010354
0.0001010274
0.0001010191
0.0001009769
0.0001009499
0.0001009602
0.0001009428
0.0001009364
0.0001009333
0.000100967
0.0001009515
0.000100942
0.0001009372
0.0001009344
0.0001009326
0.0001009365
0.0001009413
0.0001009397
0.0001009374
0.0001009357
0.0001009344
0.0001009348
0.0001009378
0.000100936
0.0001009344
0.0001009333
0.0001009324
0.0001009328
0.0001009345
0.0001009342
0.0001009335
0.0001009328
0.0001009322
0.0001009322
0.0001009331
0.0001009328
0.0001009323
0.0001009318
0.0001009314
0.0001009317
0.0001009319
0.0001009318
0.0001009315
0.0001009312
0.0001009309
0.0001009313
0.0001009311
0.000100931
0.0001009309
0.0001009307
0.0001009305
0.000100931
0.0001009305
0.0001009305
0.0001009304
0.0001009303
0.0001009301
0.0001009308
0.00010093
0.00010093
0.00010093
0.0001009299
0.0001009298
0.0001009306
0.0001009297
0.0001009297
0.0001009297
0.0001009296
0.0001009296
0.0001009304
0.0001009294
0.0001009294
0.0001009294
0.0001009294
0.0001009293
0.0001009303
0.0001009292
0.0001009292
0.0001009292
0.0001009292
0.0001009292
0.0001009301
0.000100929
0.000100929
0.000100929
0.000100929
0.000100929
0.00010093
0.0001009288
0.0001009289
0.0001009289
0.0001009289
0.0001009288
0.0001009299
0.0001009287
0.0001009287
0.0001009287
0.0001009287
0.0001009287
0.0001009298
0.0001009286
0.0001009286
0.0001009286
0.0001009286
0.0001009286
0.0001009297
0.0001009285
0.0001009285
0.0001009285
0.0001009285
0.0001009285
0.0001009296
0.0001009284
0.0001009284
0.0001009284
0.0001009284
0.0001009284
0.0001009295
0.0001009283
0.0001009283
0.0001009283
0.0001009283
0.0001009284
0.0001009294
0.0001009282
0.0001009283
0.0001009283
0.0001009283
0.0001009283
0.0001009294
0.0001009282
0.0001009282
0.0001009282
0.0001009282
0.0001009282
0.0001009293
0.0001009281
0.0001009281
0.0001009281
0.0001009282
0.0001009282
0.0001018139
0.0001010268
0.000101043
0.0001010367
0.0001010277
0.0001010187
0.0001009767
0.0001009499
0.0001009602
0.0001009428
0.0001009364
0.0001009333
0.0001009666
0.0001009515
0.000100942
0.0001009372
0.0001009344
0.0001009326
0.0001009365
0.0001009413
0.0001009397
0.0001009374
0.0001009357
0.0001009344
0.0001009349
0.0001009378
0.000100936
0.0001009344
0.0001009333
0.0001009324
0.0001009328
0.0001009345
0.0001009342
0.0001009335
0.0001009328
0.0001009322
0.0001009322
0.0001009331
0.0001009328
0.0001009323
0.0001009318
0.0001009314
0.0001009317
0.0001009319
0.0001009318
0.0001009315
0.0001009312
0.0001009309
0.0001009313
0.0001009311
0.000100931
0.0001009309
0.0001009307
0.0001009305
0.000100931
0.0001009305
0.0001009305
0.0001009304
0.0001009303
0.0001009301
0.0001009308
0.00010093
0.00010093
0.00010093
0.0001009299
0.0001009298
0.0001009306
0.0001009297
0.0001009297
0.0001009297
0.0001009296
0.0001009296
0.0001009304
0.0001009294
0.0001009294
0.0001009294
0.0001009294
0.0001009293
0.0001009303
0.0001009292
0.0001009292
0.0001009292
0.0001009292
0.0001009292
0.0001009301
0.000100929
0.000100929
0.000100929
0.000100929
0.000100929
0.00010093
0.0001009288
0.0001009289
0.0001009289
0.0001009289
0.0001009288
0.0001009299
0.0001009287
0.0001009287
0.0001009287
0.0001009287
0.0001009287
0.0001009298
0.0001009286
0.0001009286
0.0001009286
0.0001009286
0.0001009286
0.0001009297
0.0001009285
0.0001009285
0.0001009285
0.0001009285
0.0001009285
0.0001009296
0.0001009284
0.0001009284
0.0001009284
0.0001009284
0.0001009284
0.0001009295
0.0001009283
0.0001009283
0.0001009283
0.0001009283
0.0001009284
0.0001009294
0.0001009282
0.0001009283
0.0001009283
0.0001009283
0.0001009283
0.0001009294
0.0001009282
0.0001009282
0.0001009282
0.0001009282
0.0001009282
0.0001009293
0.0001009281
0.0001009281
0.0001009281
0.0001009282
0.0001009282
0.0001018468
0.000101029
0.0001010404
0.0001010359
0.0001010281
0.0001010196
0.0001009775
0.0001009505
0.0001009614
0.0001009428
0.0001009365
0.0001009334
0.0001009654
0.0001009516
0.0001009424
0.0001009374
0.0001009343
0.0001009326
0.0001009365
0.0001009413
0.00010094
0.0001009378
0.0001009362
0.0001009347
0.0001009348
0.0001009379
0.0001009361
0.0001009345
0.0001009333
0.0001009324
0.0001009328
0.0001009346
0.0001009342
0.0001009335
0.0001009328
0.0001009322
0.0001009322
0.0001009331
0.0001009328
0.0001009323
0.0001009318
0.0001009314
0.0001009317
0.0001009319
0.0001009318
0.0001009315
0.0001009312
0.0001009309
0.0001009313
0.0001009311
0.000100931
0.0001009309
0.0001009307
0.0001009305
0.000100931
0.0001009305
0.0001009305
0.0001009304
0.0001009303
0.0001009301
0.0001009308
0.00010093
0.0001009301
0.00010093
0.0001009299
0.0001009298
0.0001009306
0.0001009297
0.0001009297
0.0001009297
0.0001009296
0.0001009296
0.0001009304
0.0001009294
0.0001009294
0.0001009294
0.0001009294
0.0001009293
0.0001009303
0.0001009292
0.0001009292
0.0001009292
0.0001009292
0.0001009292
0.0001009301
0.000100929
0.000100929
0.000100929
0.000100929
0.000100929
0.00010093
0.0001009288
0.0001009289
0.0001009289
0.0001009289
0.0001009288
0.0001009299
0.0001009287
0.0001009287
0.0001009287
0.0001009287
0.0001009287
0.0001009298
0.0001009286
0.0001009286
0.0001009286
0.0001009286
0.0001009286
0.0001009297
0.0001009285
0.0001009285
0.0001009285
0.0001009285
0.0001009285
0.0001009296
0.0001009284
0.0001009284
0.0001009284
0.0001009284
0.0001009284
0.0001009295
0.0001009283
0.0001009283
0.0001009283
0.0001009283
0.0001009284
0.0001009294
0.0001009282
0.0001009283
0.0001009283
0.0001009283
0.0001009283
0.0001009294
0.0001009282
0.0001009282
0.0001009282
0.0001009282
0.0001009282
0.0001009293
0.0001009281
0.0001009281
0.0001009281
0.0001009282
0.0001009282
0.0001018287
0.0001010387
0.0001010434
0.0001010378
0.0001010295
0.0001010204
0.00010098
0.0001009528
0.0001009599
0.0001009427
0.0001009364
0.0001009333
0.0001009639
0.0001009515
0.0001009424
0.0001009375
0.0001009345
0.0001009329
0.0001009364
0.0001009414
0.0001009402
0.0001009381
0.0001009363
0.0001009349
0.000100935
0.000100938
0.0001009361
0.0001009346
0.0001009334
0.0001009325
0.0001009328
0.0001009347
0.0001009343
0.0001009335
0.0001009329
0.0001009322
0.0001009322
0.0001009331
0.0001009328
0.0001009323
0.0001009318
0.0001009314
0.0001009317
0.0001009319
0.0001009318
0.0001009315
0.0001009312
0.0001009309
0.0001009313
0.0001009311
0.000100931
0.0001009309
0.0001009307
0.0001009305
0.000100931
0.0001009305
0.0001009305
0.0001009304
0.0001009303
0.0001009301
0.0001009308
0.00010093
0.0001009301
0.00010093
0.0001009299
0.0001009298
0.0001009306
0.0001009297
0.0001009297
0.0001009297
0.0001009296
0.0001009296
0.0001009304
0.0001009294
0.0001009294
0.0001009294
0.0001009294
0.0001009293
0.0001009303
0.0001009292
0.0001009292
0.0001009292
0.0001009292
0.0001009292
0.0001009301
0.000100929
0.000100929
0.000100929
0.000100929
0.000100929
0.00010093
0.0001009288
0.0001009289
0.0001009289
0.0001009289
0.0001009288
0.0001009299
0.0001009287
0.0001009287
0.0001009287
0.0001009287
0.0001009287
0.0001009298
0.0001009286
0.0001009286
0.0001009286
0.0001009286
0.0001009286
0.0001009297
0.0001009285
0.0001009285
0.0001009285
0.0001009285
0.0001009285
0.0001009296
0.0001009284
0.0001009284
0.0001009284
0.0001009284
0.0001009284
0.0001009295
0.0001009283
0.0001009283
0.0001009283
0.0001009283
0.0001009284
0.0001009294
0.0001009282
0.0001009283
0.0001009283
0.0001009283
0.0001009283
0.0001009294
0.0001009282
0.0001009282
0.0001009282
0.0001009282
0.0001009282
0.0001009293
0.0001009281
0.0001009281
0.0001009281
0.0001009282
0.0001009282
0.0001017165
0.0001010671
0.0001010773
0.0001010653
0.0001010517
0.0001010393
0.0001009852
0.0001009605
0.0001009599
0.0001009441
0.0001009376
0.0001009345
0.0001009574
0.0001009518
0.0001009428
0.0001009379
0.0001009352
0.0001009336
0.000100938
0.0001009422
0.0001009403
0.0001009378
0.0001009362
0.0001009348
0.0001009359
0.0001009383
0.0001009363
0.0001009347
0.0001009336
0.0001009326
0.0001009335
0.000100935
0.0001009344
0.0001009336
0.0001009329
0.0001009323
0.0001009328
0.0001009333
0.0001009329
0.0001009324
0.000100932
0.0001009315
0.0001009322
0.000100932
0.0001009319
0.0001009316
0.0001009313
0.0001009311
0.0001009317
0.0001009312
0.0001009311
0.0001009309
0.0001009308
0.0001009306
0.0001009314
0.0001009306
0.0001009306
0.0001009305
0.0001009304
0.0001009302
0.0001009311
0.0001009301
0.0001009301
0.0001009301
0.00010093
0.0001009299
0.0001009308
0.0001009298
0.0001009298
0.0001009297
0.0001009297
0.0001009297
0.0001009306
0.0001009295
0.0001009295
0.0001009295
0.0001009295
0.0001009294
0.0001009305
0.0001009293
0.0001009293
0.0001009293
0.0001009293
0.0001009292
0.0001009303
0.0001009291
0.0001009291
0.0001009291
0.0001009291
0.0001009291
0.0001009302
0.0001009289
0.0001009289
0.0001009289
0.0001009289
0.0001009289
0.00010093
0.0001009288
0.0001009288
0.0001009288
0.0001009288
0.0001009288
0.0001009299
0.0001009286
0.0001009287
0.0001009287
0.0001009287
0.0001009287
0.0001009298
0.0001009285
0.0001009286
0.0001009286
0.0001009286
0.0001009286
0.0001009297
0.0001009284
0.0001009285
0.0001009285
0.0001009285
0.0001009285
0.0001009296
0.0001009284
0.0001009284
0.0001009284
0.0001009284
0.0001009284
0.0001009295
0.0001009283
0.0001009283
0.0001009283
0.0001009283
0.0001009283
0.0001009294
0.0001009282
0.0001009283
0.0001009283
0.0001009283
0.0001009283
0.0001009298
0.0001009282
0.0001009282
0.0001009282
0.0001009282
0.0001009282
0.0001111738
0.0001067853
0.0001057907
0.0001051152
0.0001046176
0.000104222
0.0001010435
0.0001010467
0.0001010367
0.0001010286
0.0001010206
0.0001010181
0.0001010197
0.0001010036
0.000101026
0.0001010132
0.0001010039
0.0001009985
0.0001009962
0.0001009962
0.0001009728
0.0001009908
0.000100995
0.0001009898
0.0001009865
0.0001009839
0.0001009818
0.0001009655
0.0001009853
0.0001009894
0.0001009868
0.0001009846
0.0001009827
0.0001009811
0.0001009588
0.0001009778
0.0001009838
0.0001009825
0.0001009812
0.00010098
0.0001009788
0.0001009548
0.0001009749
0.0001009804
0.0001009798
0.0001009791
0.0001009782
0.0001009774
0.0001009516
0.0001009724
0.0001009777
0.0001009775
0.0001009771
0.0001009765
0.0001009759
0.0001009492
0.0001009708
0.0001009757
0.0001009756
0.0001009755
0.0001009751
0.0001009747
0.0001009474
0.0001009695
0.000100974
0.0001009741
0.0001009741
0.0001009739
0.0001009735
0.0001009459
0.0001009685
0.0001009726
0.0001009728
0.0001009729
0.0001009728
0.0001009725
0.0001009447
0.0001009678
0.0001009715
0.0001009717
0.0001009718
0.0001009718
0.0001009716
0.0001009436
0.0001009672
0.0001009705
0.0001009708
0.0001009709
0.0001009709
0.0001009708
0.0001009427
0.0001009666
0.0001009697
0.0001009699
0.0001009701
0.0001009701
0.0001009701
0.0001009419
0.0001009662
0.000100969
0.0001009692
0.0001009694
0.0001009694
0.0001009694
0.0001009412
0.0001009658
0.0001009683
0.0001009686
0.0001009687
0.0001009688
0.0001009688
0.0001009405
0.0001009655
0.0001009678
0.000100968
0.0001009682
0.0001009683
0.0001009683
0.0001009399
0.0001009652
0.0001009673
0.0001009675
0.0001009677
0.0001009678
0.0001009678
0.0001009394
0.0001009649
0.0001009668
0.0001009671
0.0001009672
0.0001009673
0.0001009673
0.0001009389
0.0001009646
0.0001009664
0.0001009666
0.0001009668
0.0001009669
0.0001009669
0.0001009385
0.0001009644
0.000100966
0.0001009662
0.0001009664
0.0001009665
0.0001009665
0.000100938
0.0001009642
0.0001009656
0.0001009659
0.000100966
0.0001009661
0.0001009662
0.0001009377
0.000100964
0.0001009653
0.0001009656
0.0001009657
0.0001009658
0.0001009658
0.0001009368
0.0006374275
0.000100965
0.0001009652
0.0001009654
0.0001009654
0.0001009655
0.0003074855
0.0001118188
0.0001011381
0.0001011324
0.0003091948
0.000297554
0.0001111766
0.0001071986
0.0001010899
0.0001010073
0.0002969568
0.0002966383
0.0001067862
0.0001058312
0.0001009981
0.0001009923
0.0002962554
0.0002963101
0.0001057911
0.0001050767
0.00010098
0.0001009747
0.0002959438
0.0002960679
0.0001051154
0.0001045362
0.0001009718
0.0001009616
0.0002957132
0.0002958904
0.0001046177
0.0001040962
0.0001009672
0.0001009556
0.0002955508
0.0001042218
0.0001009633
0.0003085915
0.0002969965
0.0001010424
0.0001010273
0.0001009872
0.0001010209
0.000296324
0.000296017
0.0001010012
0.0001009951
0.0001009615
0.0001009721
0.0002956904
0.000295641
0.0001009707
0.0001009635
0.0001009531
0.0001009593
0.0002953627
0.0002953443
0.0001009636
0.0001009564
0.0001009481
0.0001009518
0.0002951111
0.0002951067
0.0001009565
0.0001009502
0.0001009454
0.0001009478
0.0002949018
0.0002949049
0.0001009525
0.000100947
0.0001009435
0.0001009452
0.0002947237
0.0002947312
0.0001009494
0.0001009447
0.0001009421
0.0001009434
0.0002945684
0.0002945786
0.0001009471
0.000100943
0.0001009411
0.0001009419
0.000294431
0.0002944429
0.0001009454
0.0001009416
0.0001009403
0.0001009408
0.0002943081
0.0002943212
0.0001009441
0.0001009405
0.0001009396
0.0001009399
0.0002941971
0.0002942109
0.0001009429
0.0001009396
0.000100939
0.000100939
0.000294096
0.0002941103
0.000100942
0.0001009388
0.0001009385
0.0001009383
0.0002940035
0.0002940181
0.0001009412
0.0001009381
0.000100938
0.0001009377
0.0002939184
0.000293933
0.0001009404
0.0001009375
0.0001009376
0.0001009371
0.0002938397
0.0002938541
0.0001009398
0.0001009369
0.0001009372
0.0001009366
0.0002937668
0.0002937808
0.0001009392
0.0001009364
0.0001009368
0.0001009362
0.000293699
0.0002937127
0.0001009387
0.0001009359
0.0001009365
0.0001009357
0.0002936358
0.0002936492
0.0001009382
0.0001009355
0.0001009362
0.0001009353
0.0002935769
0.0002935901
0.0001009377
0.0001009351
0.0001009359
0.000100935
0.0002935222
0.0002935356
0.0001009373
0.0001009348
0.0001009356
0.0001009347
0.0002934721
0.0002934892
0.000100937
0.0001009344
0.0001009354
0.0001009344
0.0002934322
0.0002934778
0.0001009366
0.0001009342
0.0001009351
0.0001009341
0.0002934483
0.0001013147
0.0001009368
0.0001009339
0.0001009349
0.0001009334
0.0001125096
0.0001010446
0.0001011064
0.0001155892
0.000101019
0.0001011114
0.0001137209
0.0001010152
0.0001011461
0.0001150607
0.0001010109
0.0001011492
0.0001140268
0.0001010144
0.0001011512
0.0001147316
0.0001010145
0.0001011497
0.0001147614
0.0001010147
0.0001011475
0.0001151073
0.0001010171
0.0001011472
0.0001147143
0.0001010153
0.0001011478
0.0001146516
0.0001010163
0.0001011482
0.0001148751
0.0001010135
0.0001011508
0.0001141145
0.0001010162
0.0001011509
0.0001150515
0.0001010108
0.000101149
0.0001136813
0.0001010184
0.000101146
0.0001156192
0.0001010161
0.0001011118
0.0001124807
0.0001010461
0.0001011064
0.0001118724
0.0001011364
0.0001011329
0.0003074864
0.0001072354
0.0001010899
0.0001010079
0.0003091956
0.0002975548
0.0001058589
0.0001009981
0.0001009928
0.0002969565
0.0002966359
0.0001050978
0.00010098
0.0001009752
0.0002962539
0.0002963129
0.0001045536
0.0001009718
0.0001009621
0.0002959447
0.000296065
0.0001041102
0.0001009672
0.0001009562
0.0002957119
0.00029589
0.0001009556
0.0001009481
0.0001009518
0.0002953549
0.0002953442
0.0001009463
0.0001009435
0.0001009452
0.0002948974
0.0002949037
0.0001009439
0.0001009422
0.0001009434
0.0002947213
0.0002947307
0.0001009423
0.0001009411
0.0001009419
0.0002945667
0.0002945775
0.000100941
0.0001009403
0.0001009408
0.0002944293
0.0002944411
0.0001009399
0.0001009396
0.0001009398
0.0002943062
0.0002943202
0.0001009375
0.000100938
0.0001009377
0.0002940031
0.0002940172
0.0001009369
0.0001009375
0.0001009371
0.000293918
0.0002939321
0.0001009364
0.0001009371
0.0001009366
0.0002938394
0.0002938532
0.0001009359
0.0001009368
0.0001009362
0.0002937666
0.0002937798
0.000100935
0.0001009361
0.0001009353
0.0002936357
0.0002936482
0.0001009346
0.0001009358
0.000100935
0.0002935769
0.0002935889
0.000100934
0.0001009353
0.0001009344
0.0002934734
0.0002934885
0.0001009337
0.0001009351
0.0001009341
0.0002934343
0.0002934776
0.0001009339
0.0001009344
0.0001009339
0.0002934488
0.0001013151
0.000102891
0.0001504178
0.0001019123
0.0001471636
0.0001018782
0.0001467125
0.0001016293
0.0001461196
0.0001015706
0.0001460581
0.0001014894
0.0001456255
0.0001014438
0.0001456551
0.0001014001
0.0001452798
0.0001013582
0.0001453461
0.000101334
0.0001450074
0.0001012969
0.0001451016
0.0001012803
0.0001447851
0.0001012497
0.0001449043
0.0001013192
0.0001465039
0.0001014674
0.0001461757
0.0001011709
0.0001455604
0.0001012368
0.0001455185
0.0001011104
0.000145103
0.0001011455
0.0001450956
0.0001010775
0.0001447602
0.0001011029
0.0001447621
0.0001010551
0.0001444853
0.0001010734
0.0001444926
0.0001010392
0.0001442557
0.0001010536
0.0001442645
0.0001010272
0.0001440584
0.0001010388
0.0001440674
0.0001010178
0.0001438867
0.0001010274
0.0001438952
0.0001010101
0.0001437345
0.0001010183
0.0001437424
0.0001010036
0.0001435982
0.0001010106
0.0001436051
0.000100998
0.0001434749
0.0001010041
0.0001434809
0.0001009931
0.0001433626
0.0001009985
0.0001433678
0.0001009888
0.0001432595
0.0001009936
0.0001432641
0.0001009849
0.0001431645
0.0001009892
0.0001431684
0.0001009815
0.0001430767
0.0001009854
0.0001430798
0.0001009784
0.0001429952
0.0001009819
0.0001429975
0.0001009756
0.0001429192
0.0001009787
0.0001429209
0.0001009731
0.0001428483
0.0001009759
0.0001428494
0.0001009708
0.0001427819
0.0001009732
0.0001427827
0.0001009686
0.0001427198
0.0001009709
0.0001427203
0.0001009667
0.0001426617
0.0001009687
0.000142662
0.0001009649
0.0001426075
0.0001009667
0.0001426079
0.0001009632
0.0001425596
0.0001009649
0.0001425681
0.0001029932
0.0001029784
0.000102894
0.0001028622
0.0001029133
0.0001028558
0.0001028954
0.0001028925
0.0001028902
0.0001028972
0.0001028761
0.000102899
0.0001028686
0.0001029352
0.000102905
0.0001029355
0.0001027765
0.0001030496
0.0001009629
0.0002955491
0.0001010268
0.0001009872
0.000101021
0.000308584
0.0002969977
0.0001009943
0.0001009614
0.0001009721
0.0002963177
0.0002960163
0.0001009627
0.0001009531
0.0001009593
0.0002956844
0.0002956394
0.0001009494
0.0001009454
0.0001009478
0.0002951089
0.0002951045
0.000100939
0.000100939
0.000100939
0.0002941959
0.0002942091
0.0001009382
0.0001009385
0.0001009383
0.0002940944
0.0002941097
0.0001009354
0.0001009364
0.0001009357
0.0002936985
0.0002937115
0.0001009343
0.0001009356
0.0001009347
0.0002935217
0.0002935362
0.0001021689
0.0001476506
0.0001021866
0.000152967
0.0001013427
0.000147096
0.0001013606
0.000152191
0.0001027777
0.0001030529
0.0001016402
0.0001464322
0.0001017554
0.0001464841
0.0001014794
0.0001459311
0.0001015929
0.0001458632
0.000101382
0.0001455804
0.0001014873
0.0001454668
0.0001013173
0.0001453043
0.0001014074
0.0001451567
0.0001012659
0.0001450802
0.0001013439
0.0001449085
0.0001012645
0.0001458531
0.0001012632
0.0001459582
0.0001011581
0.0001453311
0.0001011566
0.0001453495
0.0001011064
0.000144953
0.0001011082
0.000144955
0.0001010757
0.0001446478
0.0001010768
0.0001446431
0.0001010546
0.0001443981
0.0001010554
0.0001443899
0.0001010393
0.0001441834
0.0001010398
0.0001441734
0.0001010275
0.0001439975
0.0001010279
0.0001439869
0.0001010182
0.0001438337
0.0001010185
0.0001438233
0.0001010105
0.0001436875
0.0001010107
0.0001436776
0.000101004
0.0001435559
0.0001010041
0.0001435467
0.0001009984
0.0001434364
0.0001009984
0.0001434279
0.0001009934
0.0001433271
0.0001009934
0.0001433194
0.0001009891
0.0001432266
0.000100989
0.0001432199
0.0001009852
0.0001431337
0.0001009851
0.000143128
0.0001009817
0.0001430476
0.0001009817
0.0001430428
0.0001009786
0.0001429676
0.0001009785
0.0001429635
0.0001009758
0.0001428931
0.0001009757
0.0001428896
0.0001009732
0.0001428236
0.0001009731
0.0001428205
0.0001009708
0.0001427587
0.0001009708
0.0001427558
0.0001009686
0.000142698
0.0001009687
0.0001426954
0.0001009667
0.0001426413
0.0001009667
0.0001426389
0.0001009648
0.0001425901
0.0001009649
0.0001425866
0.0001009632
0.000101877
0.0001425547
0.000100963
0.0001029103
0.0001029487
0.0001028904
0.0001029425
0.0001028882
0.0001029145
0.0001029065
0.0001029219
0.0001029028
0.0001028832
0.0001029286
0.0001028808
0.0001029195
0.0001028649
0.0001029804
0.0001029697
0.0001029081
0.0001504244
0.0001016424
0.0001463802
0.0001017527
0.0001464828
0.000101629
0.0001461179
0.0001015691
0.0001460578
0.0001010774
0.0001447732
0.0001011026
0.0001447752
0.0001010391
0.0001442689
0.0001010534
0.000144264
0.0001010393
0.0001441828
0.0001010398
0.0001441729
0.0001010271
0.0001440587
0.0001010386
0.000144067
0.000101004
0.0001435554
0.0001010041
0.000143546
0.0001009887
0.0001432577
0.0001009935
0.0001432637
0.0001009891
0.0001432261
0.0001009891
0.0001432194
0.0001009849
0.0001431642
0.0001009891
0.000143168
0.0001009852
0.0001431332
0.0001009852
0.0001431275
0.0001009814
0.0001430764
0.0001009853
0.0001430794
0.0001009817
0.0001430472
0.0001009817
0.0001430424
0.0001009784
0.0001429948
0.0001009818
0.0001429971
0.0001009786
0.0001429672
0.0001009786
0.0001429631
0.000100973
0.0001428479
0.0001009758
0.000142849
0.0001009732
0.0001428232
0.0001009732
0.0001428201
0.0001009707
0.0001427815
0.0001009732
0.0001427823
0.0001009708
0.0001427583
0.0001009708
0.0001427554
0.0001009666
0.000142675
0.0001009687
0.0001426615
0.0001009667
0.0001426408
0.0001009667
0.0001426385
0.0001009649
0.0001426069
0.0001009666
0.000142607
0.0001009648
0.0001425911
0.0001009649
0.0001425855
0.0001009632
0.0001425595
0.0001009649
0.0001425699
0.0001009632
0.0001142867
0.0001425555
0.0001009636
0.0001154616
0.0001439669
0.0001156168
0.0001505866
0.0001164623
0.0001505266
0.0001116445
0.0001502168
0.0001127092
0.000150182
0.0001097315
0.0001499983
0.0001107181
0.0001499797
0.0001084704
0.0001498471
0.0001093791
0.0001498397
0.0001075656
0.0001497318
0.0001084021
0.0001497329
0.0001068806
0.0001496394
0.0001076358
0.0001496477
0.0001182142
0.000118599
0.0001188648
0.0001190831
0.0001190684
0.0001191742
0.0001187395
0.0001191705
0.0001186266
0.0001191494
0.0001191427
0.0001188331
0.0001186943
0.0001186379
0.0001181765
0.0001179485
0.000116901
0.0001175263
0.0001207695
0.0001507625
0.0001224258
0.0001508601
0.0001174794
0.0001175597
0.0001142917
0.0001503262
0.0001167033
0.0001503063
0.0001114869
0.0001500942
0.0001136046
0.0001500553
0.0001098031
0.0001499371
0.0001116545
0.0001498873
0.0001086179
0.0001498181
0.0001102529
0.000149761
0.0001077166
0.0001497232
0.0001091701