/*--------------------------------*- C++ -*----------------------------------*\
  =========                 |
  \\      /  F ield         | OpenFOAM: The Open Source CFD Toolbox
   \\    /   O peration     | Website:  https://openfoam.org
    \\  /    A nd           | Version:  7
     \\/     M anipulation  |
\*---------------------------------------------------------------------------*/
FoamFile
{
    version     2.0;
    format      ascii;
    class       volScalarField;
    location    "0.04";
    object      nut;
}
// * * * * * * * * * * * * * * * * * * * * * * * * * * * * * * * * * * * * * //

dimensions      [0 2 -1 0 0 0 0];

internalField   nonuniform List<scalar> 
76598
(
0.0002713941
0.0002734884
0.0002735114
0.0002734257
0.0002733338
0.0002732431
0.0002731772
0.0002731364
0.001337508
0.001303892
0.00129424
0.001292907
0.001293142
0.001293226
0.001292935
0.001292526
0.001312208
0.001258658
0.001246394
0.001247745
0.001249241
0.001249828
0.001249302
0.001246203
0.001304748
0.00124854
0.00123943
0.001261989
0.001261774
0.00126352
0.001270322
0.001250301
0.001304028
0.00125046
0.001262469
0.001273651
0.0005748458
0.0005797422
0.001309347
0.001307888
0.001304388
0.001251802
0.001261799
0.0005750432
0.0006154565
0.0002852655
0.0006358152
0.0006189407
0.00130423
0.001251176
0.001260014
0.0005778124
0.0002882229
0.001303345
0.00124822
0.001256625
0.001262856
0.001295301
0.001316457
0.001320295
0.00132015
0.001302215
0.001242529
0.001227551
0.001228343
0.00123429
0.001239679
0.001241757
0.001242489
0.001301416
0.001238645
0.001218702
0.001214539
0.001214809
0.00121593
0.001216818
0.001217429
0.001301052
0.001237426
0.00121613
0.001210302
0.001208943
0.001208893
0.001209254
0.001209701
0.001300927
0.001237004
0.001215251
0.001208856
0.001206953
0.001206503
0.001206648
0.001206994
0.001300888
0.00123683
0.001214892
0.001208275
0.001206158
0.001205547
0.001205598
0.001205893
0.001300883
0.001236764
0.001214744
0.001208034
0.001205823
0.001205142
0.001205147
0.001205417
0.001300899
0.001236749
0.001214689
0.001207935
0.001205681
0.001204967
0.00120495
0.001205208
0.001300922
0.001236754
0.001214676
0.001207901
0.001205626
0.001204895
0.001204868
0.001205116
0.001300949
0.001236772
0.001214683
0.001207897
0.001205611
0.001204869
0.001204835
0.001205081
0.001300982
0.001236798
0.001214703
0.001207908
0.001205616
0.001204869
0.001204829
0.001205073
0.001301017
0.001236829
0.001214729
0.00120793
0.001205632
0.001204881
0.001204838
0.001205079
0.001301056
0.001236865
0.001214762
0.001207959
0.001205656
0.001204902
0.001204856
0.001205095
0.001301101
0.001236908
0.001214801
0.001207994
0.00120569
0.001204934
0.001204885
0.001205122
0.001301151
0.001236959
0.001214853
0.001208046
0.001205741
0.001204984
0.001204936
0.001205171
0.001301215
0.001237029
0.001214931
0.00120813
0.001205831
0.001205077
0.001205029
0.001205263
0.001301299
0.001237136
0.001215061
0.00120828
0.001205999
0.001205255
0.00120521
0.001205442
0.0006101942
0.001292993
0.001274398
0.001267998
0.001266937
0.001267163
0.001267741
0.00126841
0.0001009234
0.0001009428
0.0001009598
0.0001009599
0.0001009602
0.0001009603
0.0001009603
0.0001009602
0.0001009602
0.0001009231
0.0001009424
0.0001009421
0.0001009424
0.000100943
0.0001009432
0.0001009431
0.000100943
0.0001009429
0.0001009228
0.0001009424
0.0001009422
0.0001009483
0.0001009637
0.0001009631
0.000100954
0.0001009486
0.000100945
0.0001009222
0.0001009427
0.0001009428
0.0001009725
0.0001009907
0.0001009313
0.0001009317
0.0001009588
0.0001009508
0.0001009216
0.000100943
0.0001009433
0.00010099
0.0001009378
0.0001010112
0.0001013379
0.0001010192
0.0001009895
0.0001009208
0.0001009426
0.000100943
0.0001009861
0.0001009333
0.0001009985
0.0003348784
0.0003418655
0.0001009201
0.0001009417
0.0001009414
0.0001009559
0.0001009439
0.0001009461
0.0001009433
0.0001009408
0.0001009401
0.0001009194
0.0001009409
0.0001009401
0.00010094
0.0001009409
0.0001009397
0.0001009395
0.0001009403
0.0001009382
0.0001009189
0.0001009404
0.0001009395
0.0001009392
0.0001009389
0.0001009387
0.0001009397
0.0001009382
0.000100939
0.0001009183
0.00010094
0.0001009391
0.0001009389
0.0001009386
0.0001009384
0.0001009387
0.0001009393
0.0001009383
0.0001009179
0.0001009397
0.0001009389
0.0001009387
0.0001009385
0.0001009384
0.0001009387
0.000100939
0.0001009391
0.0001009176
0.0001009395
0.0001009387
0.0001009386
0.0001009385
0.0001009384
0.0001009384
0.000100939
0.0001009389
0.0001009173
0.0001009394
0.0001009386
0.0001009385
0.0001009385
0.0001009384
0.0001009384
0.000100939
0.000100939
0.0001009171
0.0001009392
0.0001009385
0.0001009385
0.0001009384
0.0001009384
0.0001009384
0.000100939
0.0001009389
0.0001009169
0.0001009391
0.0001009384
0.0001009384
0.0001009384
0.0001009383
0.0001009383
0.0001009389
0.0001009389
0.0001009167
0.000100939
0.0001009383
0.0001009383
0.0001009383
0.0001009383
0.0001009383
0.0001009389
0.0001009389
0.0001009165
0.0001009389
0.0001009382
0.0001009382
0.0001009382
0.0001009382
0.0001009382
0.0001009388
0.0001009388
0.0001009162
0.0001009388
0.0001009381
0.0001009381
0.0001009381
0.0001009381
0.0001009381
0.0001009387
0.0001009387
0.000100916
0.0001009387
0.000100938
0.000100938
0.000100938
0.000100938
0.000100938
0.0001009386
0.0001009386
0.0001009158
0.0001009386
0.0001009379
0.0001009379
0.0001009379
0.0001009379
0.0001009379
0.0001009385
0.0001009386
0.0001009156
0.0001009384
0.0001009378
0.0001009377
0.0001009378
0.0001009377
0.0001009378
0.0001009384
0.0001009385
0.0001009154
0.0001009383
0.0001009377
0.0001009376
0.0001009376
0.0001009376
0.0001009376
0.0001009384
0.0001009384
0.0001009169
0.0001009383
0.0001009376
0.0001009375
0.0001009375
0.0001009375
0.0001009375
0.0001009383
0.0001009384
0.0006049515
0.001270835
0.001237162
0.001227001
0.001225044
0.001225201
0.001225975
0.001227015
0.0001009234
0.0001009257
0.0001009429
0.0001009427
0.000100943
0.0001009432
0.0001009431
0.0001009431
0.0001009431
0.0001009252
0.0001009256
0.0001009259
0.0001009263
0.0001009268
0.0001009271
0.0001009269
0.0001009268
0.0001009268
0.0001009252
0.0001009258
0.000100926
0.0001009268
0.0001009279
0.0001009281
0.0001009279
0.0001009271
0.000100927
0.0001009252
0.0001009261
0.0001009265
0.0001009281
0.0001009311
0.0001009314
0.0001009318
0.0001009281
0.0001010046
0.0001009251
0.0001009263
0.0001009268
0.0001009308
0.0001009375
0.0001010135
0.0001013441
0.0001010238
0.00099783
0.0001009247
0.0001009258
0.0001009266
0.0001009299
0.0001009333
0.0001009943
0.0003362654
0.001010127
0.000100924
0.0001009249
0.0001009252
0.0001009255
0.0001009275
0.0001009291
0.0001009259
0.0001009235
0.0001009376
0.0001009234
0.0001009241
0.000100924
0.0001009238
0.0001009238
0.0001009235
0.0001009233
0.000100922
0.0001009222
0.000100923
0.0001009236
0.0001009234
0.0001009231
0.0001009228
0.0001009225
0.0001009221
0.0001009221
0.0001009221
0.0001009226
0.0001009232
0.000100923
0.0001009227
0.0001009224
0.0001009222
0.000100922
0.000100922
0.0001009221
0.0001009224
0.0001009229
0.0001009227
0.0001009225
0.0001009223
0.0001009221
0.000100922
0.000100922
0.0001009221
0.0001009222
0.0001009228
0.0001009226
0.0001009224
0.0001009222
0.0001009221
0.000100922
0.000100922
0.0001009221
0.000100922
0.0001009226
0.0001009225
0.0001009223
0.0001009222
0.0001009221
0.000100922
0.000100922
0.0001009221
0.0001009218
0.0001009225
0.0001009223
0.0001009223
0.0001009221
0.0001009221
0.000100922
0.000100922
0.000100922
0.0001009217
0.0001009224
0.0001009222
0.0001009222
0.0001009221
0.000100922
0.000100922
0.000100922
0.000100922
0.0001009216
0.0001009223
0.0001009221
0.0001009221
0.000100922
0.0001009219
0.0001009219
0.0001009219
0.0001009219
0.0001009214
0.0001009221
0.000100922
0.000100922
0.0001009219
0.0001009219
0.0001009218
0.0001009218
0.0001009218
0.0001009213
0.000100922
0.0001009219
0.0001009219
0.0001009218
0.0001009218
0.0001009217
0.0001009217
0.0001009218
0.0001009212
0.0001009219
0.0001009218
0.0001009218
0.0001009217
0.0001009217
0.0001009216
0.0001009216
0.0001009217
0.000100921
0.0001009218
0.0001009217
0.0001009217
0.0001009216
0.0001009215
0.0001009215
0.0001009215
0.0001009215
0.0001009209
0.0001009217
0.0001009216
0.0001009215
0.0001009215
0.0001009214
0.0001009214
0.0001009214
0.0001009214
0.0001009207
0.0001009216
0.0001009215
0.0001009214
0.0001009213
0.0001009213
0.0001009213
0.0001009213
0.0001009213
0.0001009205
0.0001009215
0.0001009214
0.0001009213
0.0001009212
0.0001009212
0.0001009212
0.0001009212
0.0001009212
0.0006039841
0.00126265
0.001225118
0.001212765
0.001210366
0.001210543
0.001211526
0.001212906
0.0001009234
0.0001009257
0.0001009428
0.0001009426
0.0001009429
0.0001009431
0.000100943
0.000100943
0.0001009429
0.0001009253
0.0001009256
0.000100926
0.0001009263
0.0001009269
0.0001009271
0.0001009269
0.0001009268
0.0001009268
0.0001009251
0.0001009258
0.0001009261
0.0001009268
0.0001009279
0.0001009281
0.0001009279
0.0001009271
0.000100927
0.0001009251
0.0001009261
0.0001009265
0.0001009281
0.0001009311
0.0001009313
0.0001009318
0.0001009281
0.0001010056
0.0001009247
0.0001009264
0.0001009269
0.0001009308
0.0001009378
0.0001010144
0.0001013476
0.0001010315
0.0009496892
0.0001009242
0.0001009259
0.0001009267
0.0001009299
0.0001009337
0.0001009938
0.0003275088
0.0009569876
0.0001009238
0.000100925
0.0001009252
0.0001009255
0.0001009275
0.0001009293
0.0001009257
0.0001009237
0.0001009371
0.0001009233
0.0001009242
0.000100924
0.0001009238
0.0001009238
0.0001009234
0.0001009234
0.0001009218
0.0001009221
0.000100923
0.0001009237
0.0001009234
0.0001009231
0.0001009228
0.0001009224
0.000100922
0.0001009221
0.0001009221
0.0001009227
0.0001009233
0.000100923
0.0001009227
0.0001009224
0.0001009222
0.000100922
0.000100922
0.0001009221
0.0001009225
0.0001009231
0.0001009228
0.0001009225
0.0001009223
0.0001009221
0.000100922
0.000100922
0.0001009221
0.0001009223
0.0001009229
0.0001009226
0.0001009224
0.0001009222
0.0001009221
0.000100922
0.000100922
0.0001009221
0.0001009221
0.0001009227
0.0001009225
0.0001009223
0.0001009222
0.0001009221
0.000100922
0.000100922
0.0001009221
0.000100922
0.0001009226
0.0001009224
0.0001009223
0.0001009221
0.0001009221
0.000100922
0.000100922
0.000100922
0.0001009218
0.0001009225
0.0001009223
0.0001009222
0.0001009221
0.000100922
0.000100922
0.000100922
0.000100922
0.0001009217
0.0001009224
0.0001009222
0.0001009221
0.000100922
0.0001009219
0.0001009219
0.0001009219
0.0001009219
0.0001009216
0.0001009223
0.0001009221
0.000100922
0.0001009219
0.0001009219
0.0001009218
0.0001009218
0.0001009218
0.0001009214
0.0001009222
0.000100922
0.0001009219
0.0001009218
0.0001009218
0.0001009217
0.0001009217
0.0001009218
0.0001009213
0.0001009221
0.0001009219
0.0001009218
0.0001009217
0.0001009217
0.0001009216
0.0001009216
0.0001009217
0.0001009211
0.000100922
0.0001009218
0.0001009217
0.0001009216
0.0001009215
0.0001009215
0.0001009215
0.0001009216
0.000100921
0.0001009218
0.0001009217
0.0001009215
0.0001009215
0.0001009214
0.0001009214
0.0001009214
0.0001009214
0.0001009208
0.0001009218
0.0001009215
0.0001009214
0.0001009214
0.0001009213
0.0001009213
0.0001009213
0.0001009213
0.0001009206
0.0001009217
0.0001009214
0.0001009213
0.0001009212
0.0001009212
0.0001009212
0.0001009212
0.0001009212
0.0006038064
0.001261035
0.001222652
0.001209878
0.001207365
0.001207588
0.001208697
0.001210253
0.0001009234
0.0001009257
0.0001009428
0.0001009426
0.000100943
0.0001009431
0.000100943
0.000100943
0.0001009429
0.0001009253
0.0001009256
0.0001009259
0.0001009263
0.0001009269
0.0001009271
0.000100927
0.0001009268
0.0001009268
0.0001009251
0.0001009259
0.0001009261
0.0001009268
0.0001009279
0.0001009281
0.0001009279
0.0001009271
0.000100927
0.0001009251
0.0001009262
0.0001009265
0.0001009281
0.0001009311
0.0001009314
0.0001009318
0.0001009281
0.0001010059
0.0001009247
0.0001009264
0.0001009269
0.0001009308
0.0001009377
0.0001010141
0.0001013483
0.0001010337
0.0009302885
0.0001009243
0.0001009259
0.0001009267
0.0001009299
0.0001009339
0.0001009934
0.0003247342
0.0009357007
0.0001009238
0.000100925
0.0001009252
0.0001009255
0.0001009275
0.0001009293
0.0001009256
0.000100924
0.000100937
0.0001009233
0.0001009242
0.0001009241
0.0001009239
0.0001009238
0.0001009234
0.0001009234
0.0001009218
0.000100922
0.000100923
0.0001009237
0.0001009235
0.0001009231
0.0001009228
0.0001009224
0.000100922
0.0001009221
0.0001009221
0.0001009227
0.0001009233
0.0001009231
0.0001009228
0.0001009224
0.0001009222
0.000100922
0.000100922
0.0001009221
0.0001009224
0.0001009231
0.0001009228
0.0001009226
0.0001009223
0.0001009221
0.000100922
0.000100922
0.0001009221
0.0001009223
0.0001009229
0.0001009227
0.0001009225
0.0001009223
0.0001009221
0.000100922
0.000100922
0.0001009221
0.0001009221
0.0001009227
0.0001009226
0.0001009224
0.0001009222
0.0001009221
0.000100922
0.000100922
0.0001009221
0.0001009219
0.0001009226
0.0001009225
0.0001009223
0.0001009222
0.0001009221
0.000100922
0.000100922
0.000100922
0.0001009218
0.0001009225
0.0001009224
0.0001009222
0.0001009221
0.000100922
0.000100922
0.000100922
0.000100922
0.0001009217
0.0001009224
0.0001009223
0.0001009221
0.000100922
0.000100922
0.0001009219
0.0001009219
0.0001009219
0.0001009216
0.0001009223
0.0001009222
0.000100922
0.0001009219
0.0001009219
0.0001009218
0.0001009218
0.0001009218
0.0001009214
0.0001009222
0.0001009221
0.0001009219
0.0001009218
0.0001009218
0.0001009217
0.0001009217
0.0001009218
0.0001009213
0.0001009221
0.000100922
0.0001009218
0.0001009217
0.0001009217
0.0001009216
0.0001009216
0.0001009217
0.0001009211
0.000100922
0.0001009218
0.0001009217
0.0001009216
0.0001009216
0.0001009215
0.0001009215
0.0001009216
0.0001009209
0.0001009219
0.0001009217
0.0001009216
0.0001009215
0.0001009214
0.0001009214
0.0001009214
0.0001009214
0.0001009208
0.0001009218
0.0001009216
0.0001009215
0.0001009214
0.0001009213
0.0001009213
0.0001009213
0.0001009213
0.0001009206
0.0001009217
0.0001009215
0.0001009214
0.0001009213
0.0001009212
0.0001009212
0.0001009212
0.0001009212
0.0006039039
0.00126214
0.001224472
0.00121207
0.001209686
0.001209921
0.001210944
0.00121225
0.0001009234
0.0001009257
0.0001009428
0.0001009427
0.000100943
0.0001009431
0.000100943
0.000100943
0.0001009429
0.0001009253
0.0001009256
0.000100926
0.0001009263
0.0001009269
0.0001009271
0.000100927
0.0001009268
0.0001009268
0.0001009251
0.0001009259
0.0001009261
0.0001009268
0.0001009279
0.0001009281
0.0001009279
0.0001009271
0.000100927
0.0001009251
0.0001009261
0.0001009265
0.0001009281
0.0001009311
0.0001009313
0.0001009318
0.0001009281
0.0001010058
0.0001009247
0.0001009264
0.0001009269
0.0001009308
0.0001009378
0.0001010141
0.0001013482
0.0001010288
0.0009302951
0.0001009243
0.0001009259
0.0001009267
0.0001009299
0.0001009339
0.0001009932
0.0003244065
0.0009356123
0.0001009238
0.000100925
0.0001009252
0.0001009255
0.0001009275
0.0001009293
0.0001009256
0.0001009241
0.000100937
0.0001009233
0.0001009242
0.0001009241
0.0001009239
0.0001009238
0.0001009234
0.0001009234
0.0001009218
0.000100922
0.000100923
0.0001009237
0.0001009235
0.0001009231
0.0001009228
0.0001009224
0.000100922
0.0001009221
0.0001009221
0.0001009227
0.0001009233
0.0001009231
0.0001009228
0.0001009224
0.0001009222
0.000100922
0.000100922
0.0001009221
0.0001009224
0.0001009231
0.0001009228
0.0001009226
0.0001009223
0.0001009221
0.000100922
0.000100922
0.0001009221
0.0001009222
0.0001009229
0.0001009227
0.0001009225
0.0001009223
0.0001009221
0.000100922
0.000100922
0.0001009221
0.0001009221
0.0001009227
0.0001009226
0.0001009224
0.0001009222
0.0001009221
0.000100922
0.000100922
0.0001009221
0.000100922
0.0001009226
0.0001009225
0.0001009223
0.0001009222
0.0001009221
0.000100922
0.000100922
0.000100922
0.0001009219
0.0001009225
0.0001009224
0.0001009222
0.0001009221
0.000100922
0.000100922
0.000100922
0.000100922
0.0001009217
0.0001009224
0.0001009223
0.0001009221
0.000100922
0.000100922
0.0001009219
0.0001009219
0.0001009219
0.0001009216
0.0001009223
0.0001009222
0.000100922
0.0001009219
0.0001009219
0.0001009218
0.0001009218
0.0001009218
0.0001009214
0.0001009222
0.0001009221
0.0001009219
0.0001009218
0.0001009218
0.0001009217
0.0001009217
0.0001009218
0.0001009213
0.0001009221
0.000100922
0.0001009218
0.0001009217
0.0001009217
0.0001009216
0.0001009216
0.0001009217
0.0001009211
0.000100922
0.0001009218
0.0001009217
0.0001009216
0.0001009216
0.0001009215
0.0001009215
0.0001009216
0.000100921
0.0001009219
0.0001009217
0.0001009216
0.0001009215
0.0001009214
0.0001009214
0.0001009214
0.0001009214
0.0001009208
0.0001009218
0.0001009216
0.0001009215
0.0001009214
0.0001009213
0.0001009213
0.0001009213
0.0001009213
0.0001009206
0.0001009217
0.0001009215
0.0001009214
0.0001009213
0.0001009212
0.0001009212
0.0001009212
0.0001009212
0.000604145
0.001269189
0.001235096
0.001224788
0.001222838
0.001223081
0.001223822
0.001223565
0.0001009234
0.0001009257
0.0001009429
0.0001009427
0.0001009431
0.0001009432
0.0001009432
0.0001009431
0.000100943
0.0001009253
0.0001009256
0.000100926
0.0001009263
0.0001009269
0.0001009271
0.000100927
0.0001009268
0.0001009268
0.0001009251
0.0001009258
0.0001009261
0.0001009268
0.0001009279
0.0001009281
0.0001009279
0.0001009271
0.000100927
0.0001009251
0.0001009262
0.0001009265
0.0001009281
0.0001009311
0.0001009313
0.0001009318
0.0001009281
0.0001010056
0.0001009247
0.0001009264
0.0001009269
0.0001009308
0.0001009379
0.0001010144
0.0001013484
0.0001010271
0.000949792
0.0001009242
0.0001009259
0.0001009267
0.0001009298
0.0001009337
0.0001009933
0.0003255023
0.0009566174
0.0001009238
0.000100925
0.0001009253
0.0001009255
0.0001009275
0.0001009293
0.0001009257
0.0001009238
0.0001009371
0.0001009234
0.0001009243
0.000100924
0.0001009239
0.0001009238
0.0001009234
0.0001009234
0.0001009218
0.0001009221
0.000100923
0.0001009238
0.0001009235
0.0001009231
0.0001009228
0.0001009224
0.000100922
0.0001009221
0.0001009221
0.0001009227
0.0001009234
0.0001009231
0.0001009228
0.0001009225
0.0001009222
0.000100922
0.000100922
0.0001009221
0.0001009225
0.0001009231
0.0001009228
0.0001009226
0.0001009223
0.0001009221
0.000100922
0.000100922
0.0001009221
0.0001009223
0.0001009229
0.0001009227
0.0001009225
0.0001009223
0.0001009221
0.000100922
0.000100922
0.0001009221
0.0001009222
0.0001009227
0.0001009226
0.0001009224
0.0001009222
0.0001009221
0.000100922
0.000100922
0.0001009221
0.000100922
0.0001009226
0.0001009225
0.0001009223
0.0001009222
0.0001009221
0.000100922
0.000100922
0.000100922
0.0001009219
0.0001009225
0.0001009224
0.0001009222
0.0001009221
0.000100922
0.000100922
0.000100922
0.000100922
0.0001009218
0.0001009224
0.0001009223
0.0001009221
0.000100922
0.000100922
0.0001009219
0.0001009219
0.0001009219
0.0001009216
0.0001009223
0.0001009222
0.000100922
0.000100922
0.0001009219
0.0001009218
0.0001009218
0.0001009218
0.0001009215
0.0001009222
0.0001009221
0.0001009219
0.0001009219
0.0001009218
0.0001009217
0.0001009217
0.0001009218
0.0001009213
0.0001009221
0.0001009219
0.0001009218
0.0001009218
0.0001009217
0.0001009216
0.0001009216
0.0001009217
0.0001009212
0.000100922
0.0001009218
0.0001009217
0.0001009216
0.0001009216
0.0001009215
0.0001009215
0.0001009215
0.000100921
0.0001009219
0.0001009217
0.0001009216
0.0001009215
0.0001009214
0.0001009214
0.0001009214
0.0001009214
0.0001009208
0.0001009218
0.0001009216
0.0001009215
0.0001009214
0.0001009213
0.0001009213
0.0001009213
0.0001009213
0.0001009206
0.0001009217
0.0001009215
0.0001009214
0.0001009213
0.0001009212
0.0001009212
0.0001009212
0.0001009212
0.0006067253
0.001288893
0.001269146
0.001262272
0.001261186
0.001261661
0.001262321
0.001261114
0.0001009234
0.0001009257
0.0001009431
0.0001009432
0.0001009435
0.0001009437
0.0001009436
0.0001009436
0.0001009435
0.0001009253
0.0001009256
0.0001009259
0.0001009263
0.0001009268
0.0001009271
0.000100927
0.0001009268
0.0001009268
0.0001009253
0.0001009258
0.0001009261
0.0001009267
0.0001009279
0.0001009281
0.0001009279
0.0001009271
0.000100927
0.0001009253
0.0001009261
0.0001009265
0.0001009281
0.000100931
0.0001009313
0.0001009318
0.0001009281
0.0001010047
0.0001009252
0.0001009264
0.0001009269
0.0001009308
0.0001009378
0.0001010147
0.0001013456
0.0001010225
0.0009983996
0.0001009246
0.0001009259
0.0001009267
0.0001009298
0.0001009334
0.0001009938
0.0003310606
0.001008706
0.0001009239
0.0001009249
0.0001009252
0.0001009255
0.0001009275
0.0001009291
0.000100926
0.0001009235
0.0001009376
0.0001009235
0.0001009243
0.0001009241
0.0001009239
0.0001009238
0.0001009235
0.0001009233
0.000100922
0.0001009223
0.0001009234
0.0001009237
0.0001009235
0.0001009231
0.0001009228
0.0001009225
0.0001009221
0.0001009221
0.0001009221
0.0001009228
0.0001009233
0.0001009231
0.0001009228
0.0001009225
0.0001009222
0.000100922
0.000100922
0.0001009221
0.0001009226
0.0001009231
0.0001009229
0.0001009226
0.0001009223
0.0001009221
0.000100922
0.000100922
0.0001009221
0.0001009222
0.0001009229
0.0001009227
0.0001009225
0.0001009223
0.0001009221
0.000100922
0.000100922
0.0001009221
0.0001009221
0.0001009227
0.0001009226
0.0001009224
0.0001009222
0.0001009221
0.000100922
0.000100922
0.0001009221
0.0001009221
0.0001009227
0.0001009225
0.0001009223
0.0001009222
0.0001009221
0.000100922
0.000100922
0.000100922
0.0001009221
0.0001009225
0.0001009224
0.0001009223
0.0001009221
0.000100922
0.000100922
0.000100922
0.000100922
0.0001009218
0.0001009224
0.0001009223
0.0001009222
0.000100922
0.000100922
0.0001009219
0.0001009219
0.0001009219
0.0001009216
0.0001009223
0.0001009222
0.0001009221
0.000100922
0.0001009219
0.0001009218
0.0001009218
0.0001009218
0.0001009215
0.0001009222
0.0001009221
0.000100922
0.0001009219
0.0001009218
0.0001009217
0.0001009217
0.0001009218
0.0001009214
0.0001009221
0.000100922
0.0001009219
0.0001009218
0.0001009217
0.0001009216
0.0001009216
0.0001009217
0.0001009213
0.0001009219
0.0001009218
0.0001009217
0.0001009216
0.0001009216
0.0001009215
0.0001009215
0.0001009215
0.0001009211
0.0001009219
0.0001009217
0.0001009216
0.0001009215
0.0001009214
0.0001009214
0.0001009214
0.0001009214
0.000100921
0.0001009218
0.0001009216
0.0001009215
0.0001009214
0.0001009213
0.0001009213
0.0001009213
0.0001009213
0.0001009208
0.0001009217
0.0001009215
0.0001009214
0.0001009213
0.0001009212
0.0001009212
0.0001009212
0.0001009212
0.0006110919
0.0005976763
0.0005787375
0.000575151
0.0005736239
0.0005752776
0.0005769557
0.0005759699
0.0001009235
0.0001009428
0.0001009427
0.0001009429
0.0001009432
0.0001009434
0.0001009434
0.0001009434
0.0001009434
0.0001009235
0.0001009425
0.0001009421
0.0001009425
0.000100943
0.0001009433
0.0001009436
0.0001009431
0.000100943
0.0001009235
0.0001009425
0.0001009423
0.000100948
0.0001009633
0.0001009635
0.0001009556
0.0001009498
0.0001009459
0.0001009232
0.0001009428
0.0001009428
0.0001009726
0.0001009909
0.0001009313
0.0001009316
0.0001009281
0.0001009503
0.0001009227
0.0001009432
0.0001009433
0.0001009898
0.0001009381
0.0001010151
0.0001013454
0.0001010237
0.000101022
0.0001009221
0.000100943
0.000100943
0.000100986
0.0001009332
0.000100997
0.0003424943
0.0003561682
0.0001009206
0.0001009422
0.0001009416
0.000100957
0.0001009439
0.000100946
0.0001009434
0.0001009407
0.0001009401
0.0001009252
0.0001009408
0.0001009402
0.00010094
0.0001009404
0.0001009397
0.0001009395
0.0001009392
0.0001009383
0.0001009202
0.0001009405
0.0001009395
0.0001009393
0.000100939
0.0001009387
0.0001009399
0.0001009386
0.0001009387
0.0001009194
0.00010094
0.0001009392
0.0001009389
0.0001009387
0.0001009384
0.0001009386
0.0001009391
0.0001009383
0.0001009191
0.00010094
0.000100939
0.0001009388
0.0001009386
0.0001009384
0.0001009386
0.0001009389
0.000100939
0.0001009195
0.0001009396
0.0001009389
0.0001009387
0.0001009385
0.0001009384
0.0001009384
0.000100939
0.0001009388
0.0001009244
0.0001009392
0.0001009388
0.0001009386
0.0001009385
0.0001009384
0.0001009384
0.000100939
0.0001009389
0.0001009244
0.0001009393
0.0001009386
0.0001009385
0.0001009385
0.0001009384
0.0001009384
0.000100939
0.0001009389
0.0001009183
0.0001009393
0.0001009386
0.0001009385
0.0001009384
0.0001009384
0.0001009383
0.0001009389
0.0001009389
0.0001009178
0.0001009391
0.0001009385
0.0001009384
0.0001009383
0.0001009383
0.0001009383
0.0001009388
0.0001009388
0.0001009176
0.000100939
0.0001009384
0.0001009383
0.0001009382
0.0001009382
0.0001009382
0.0001009388
0.0001009388
0.0001009174
0.0001009389
0.0001009383
0.0001009382
0.0001009381
0.0001009381
0.0001009381
0.0001009387
0.0001009387
0.0001009171
0.0001009388
0.0001009382
0.0001009381
0.000100938
0.000100938
0.000100938
0.0001009386
0.0001009385
0.0001009168
0.0001009387
0.0001009381
0.0001009379
0.0001009379
0.0001009379
0.0001009379
0.0001009387
0.0001009385
0.0001009164
0.0001009386
0.000100938
0.0001009378
0.0001009378
0.0001009378
0.0001009378
0.0001009385
0.000100938
0.0001009161
0.0001009385
0.0001009379
0.0001009377
0.0001009377
0.000100938
0.0001009383
0.0001009396
0.0001009381
0.0001009161
0.0001009385
0.0001009378
0.0001009376
0.0001009376
0.0001009375
0.0001009375
0.0001009386
0.0001009376
0.0002704235
0.0002660273
0.000266292
0.0006012788
0.0006035212
0.0002706537
0.0002700823
0.0002663458
0.0001009184
0.001341602
0.001312218
0.001302174
0.001299739
0.001300141
0.001301372
0.001302355
0.001301237
0.0001009181
0.001312719
0.001260475
0.00124843
0.001249734
0.001252693
0.001254461
0.00125456
0.001254802
0.0001009175
0.001303313
0.001248604
0.001239933
0.001262812
0.001264441
0.001279341
0.001267011
0.001276257
0.0001009177
0.001300522
0.001249665
0.00126244
0.00127398
0.0001010667
0.0001010111
0.0001010046
0.001311558
0.0001009527
0.001300245
0.001250734
0.00126158
0.0001011274
0.0001011514
0.0001013437
0.0001010388
0.0001010561
0.0001009139
0.00130101
0.00125028
0.001259737
0.000101064
0.0001010009
0.0001009148
0.001300185
0.001247198
0.001256306
0.001262744
0.001294719
0.001313204
0.001317753
0.001317805
0.0001009811
0.001296718
0.001241196
0.001227163
0.001228167
0.001234038
0.001239187
0.001241094
0.001241819
0.0001009903
0.001297089
0.001237435
0.001218333
0.001214394
0.001214724
0.00121583
0.001216699
0.001217298
0.0001009097
0.001297087
0.001236478
0.001215796
0.001210167
0.001208891
0.001208877
0.001209257
0.001209711
0.0001009137
0.001297612
0.001236058
0.001214893
0.001208705
0.001206892
0.001206488
0.00120666
0.001207018
0.0001009112
0.001296116
0.001235402
0.001214416
0.001208085
0.001206078
0.001205518
0.001205594
0.001205902
0.0001010144
0.001292294
0.001234727
0.001214133
0.001207804
0.001205729
0.001205104
0.001205135
0.001205416
0.000101016
0.001292139
0.00123469
0.001214072
0.001207705
0.001205588
0.001204927
0.001204936
0.001205203
0.0001010254
0.001295936
0.001235313
0.001214204
0.001207717
0.001205549
0.001204863
0.001204856
0.001205114
0.0001009115
0.001298643
0.00123601
0.001214392
0.001207773
0.00120556
0.001204852
0.001204832
0.001205083
0.000101041
0.001299339
0.001236294
0.001214507
0.001207831
0.001205592
0.001204867
0.001204839
0.001205082
0.0001009106
0.001298863
0.001236317
0.001214572
0.001207888
0.001205639
0.001204906
0.001204869
0.001205105
0.0001010552
0.001298782
0.001236342
0.001214638
0.001207963
0.001205713
0.001204972
0.001204926
0.001205149
0.0001009097
0.00129838
0.001236442
0.001214746
0.001208093
0.001205848
0.001205102
0.001205032
0.001205227
0.000100915
0.001298482
0.001236551
0.001214959
0.001208374
0.001206162
0.00120539
0.001205258
0.001205383
0.0001009174
0.00129884
0.001236806
0.001215481
0.001209122
0.001207008
0.001206162
0.001205818
0.001205726
0.0001009097
0.001299191
0.001237782
0.001217294
0.001211731
0.001209971
0.001208859
0.00120773
0.001206759
0.0002531477
0.0006450988
0.0002660165
0.0001009204
0.0001009602
0.0002734923
0.0006312386
0.0006094672
0.0006091319
0.0005939264
0.0001011701
0.0001010619
0.0002735067
0.0006034928
0.0006005242
0.0006024269
0.0005883919
0.0001013172
0.0001011602
0.0002734374
0.0005997765
0.0005993845
0.0005850339
0.0005831942
0.0001013143
0.0001012261
0.0002733494
0.0005992729
0.0005991731
0.0005828227
0.0005825959
0.0001013572
0.0001012449
0.0002732578
0.0005991539
0.0005990866
0.0005825405
0.0005825063
0.0001013298
0.00010124
0.0002731894
0.0005990765
0.0005990201
0.0005825032
0.0005825081
0.0001012568
0.000101193
0.0002731445
0.0005990122
0.0005989733
0.0005825258
0.0005825489
0.0001011931
0.0001011521
0.0002731164
0.0005989807
0.0005989857
0.0005825707
0.0005825891
0.0001011409
0.0001011169
0.0006494967
0.0006330046
0.0001009201
0.0001024086
0.0001009198
0.0001024183
0.0006293449
0.0006273249
0.0001009208
0.0001025237
0.0001009187
0.0001025275
0.0006270067
0.0006268135
0.0001009203
0.0001027162
0.0001009184
0.0001027253
0.0006268581
0.0006268625
0.0001009197
0.0001029851
0.000100918
0.0001029951
0.0006269669
0.0006269765
0.0001009191
0.0001033433
0.0001009171
0.0001033538
0.0002867716
0.0002898192
0.0001011524
0.0001010621
0.0001011048
0.0006269787
0.0001013492
0.0001011665
0.0006214221
0.0001011051
0.000101063
0.0006183573
0.0001010544
0.0001010339
0.0006270925
0.0006270871
0.0001009183
0.0001037625
0.0001009152
0.0001037743
0.0006047231
0.000624209
0.0001010016
0.0001037562
0.0001029617
0.0006409544
0.0006468103
0.0001027346
0.0001015348
0.0006466504
0.0006463729
0.0001018321
0.0001013475
0.000646289
0.0006462106
0.0001016953
0.0001013315
0.0006271827
0.0006271701
0.0001009174
0.0001041459
0.0001009132
0.0001041595
0.0006272421
0.0006272341
0.0001009166
0.0001044582
0.0001009119
0.0001044713
0.0006272976
0.000627298
0.0001009162
0.0001047225
0.000100911
0.0001047293
0.0006273466
0.0006273508
0.000100916
0.0001049303
0.0001009103
0.0001049362
0.0006273945
0.0006273988
0.0001009159
0.0001051069
0.0001009099
0.000105111
0.000627438
0.0006274426
0.0001009158
0.0001052557
0.0001009095
0.0001052603
0.0006274775
0.0006274826
0.0001009158
0.0001053889
0.0001009093
0.0001053936
0.0006275153
0.0006275205
0.0001009159
0.0001055129
0.0001009092
0.0001055179
0.0006275523
0.0006275575
0.0001009159
0.0001056332
0.0001009091
0.0001056384
0.0006275897
0.000627595
0.000100916
0.0001057546
0.000100909
0.00010576
0.0006276286
0.000627634
0.0001009161
0.0001058809
0.0001009091
0.0001058865
0.0006276699