/*--------------------------------*- C++ -*----------------------------------*\
  =========                 |
  \\      /  F ield         | OpenFOAM: The Open Source CFD Toolbox
   \\    /   O peration     | Website:  https://openfoam.org
    \\  /    A nd           | Version:  7
     \\/     M anipulation  |
\*---------------------------------------------------------------------------*/
FoamFile
{
    version     2.0;
    format      ascii;
    class       surfaceScalarField;
    location    "0.04";
    object      phi;
}
// * * * * * * * * * * * * * * * * * * * * * * * * * * * * * * * * * * * * * //

dimensions      [0 3 -1 0 0 0 0];

internalField   nonuniform List<scalar> 
228001
(
0.0002145162
-0.0001935672
-9.665591e-06
-1.128357e-05
0.0002108625
-0.000182461
-1.575342e-05
-1.264818e-05
0.0001875425
-0.0001607718
-1.641232e-05
-1.035842e-05
0.0001560947
-0.0001319583
-1.491602e-05
-9.220472e-06
0.0001190879
-9.876372e-05
-1.319217e-05
-7.132033e-06
8.294034e-05
-6.781615e-05
-9.844844e-06
-5.279361e-06
5.465599e-05
-4.422148e-05
-6.889726e-06
-3.544783e-06
3.510352e-05
-2.839948e-05
-4.402336e-06
-2.301706e-06
-0.003986907
-0.0005249728
-0.0002547166
0.0002018588
-0.0001718401
0.0001145872
-1.559287e-05
0.001042918
0.001084134
0.001254764
0.001255768
-0.003471267
-0.0009029328
-3.640047e-05
0.0003004115
-9.808638e-05
0.000147226
7.414135e-05
-0.002844582
-0.001219671
-5.231215e-05
0.0003292734
-2.453201e-05
0.000200569
0.0001399878
-0.002090836
-0.001429762
-6.873453e-05
0.0003201713
3.616447e-05
0.0002165882
0.0001718247
-0.001401931
-0.001339561
-6.630413e-05
0.0002731074
7.153246e-05
0.0002094894
0.000162831
-0.0008997026
-0.0009843702
-5.730806e-05
0.0001981155
6.489524e-05
0.0001559692
0.0001204693
-0.000556806
-0.0006936397
-3.479493e-05
0.0001375415
4.987386e-05
0.0001112443
8.687794e-05
-0.0004476292
-2.097147e-05
8.911081e-05
3.450388e-05
7.214605e-05
5.679503e-05
-0.0003407614
-0.004371294
-0.0008629002
-0.0003386965
0.001179785
0.001170841
0.001348616
0.001348676
-0.003733736
-0.001408525
-0.0001319652
-0.002997567
-0.001917253
-3.8588e-05
-0.002072334
-0.002310066
-4.492925e-05
-0.001182575
-0.002213291
-1.603022e-05
-0.0006060536
-0.001556348
-4.54439e-06
-0.0003220079
-0.0009606433
-1.704249e-05
-0.0005815791
-1.043081e-05
-0.0001776274
-0.004926574
-0.001188715
-0.0004362909
0.001337286
0.001315926
0.001515354
0.001520114
-0.004194147
-0.002047423
-9.352979e-05
-0.003290763
-0.002857271
3.663437e-05
-0.001973809
-0.003764563
0.0001375423
-0.0007001818
-0.0008444506
0.0001315357
-0.0007985847
-0.00103827
-0.0009371496
-0.0001158235
-0.0005364134
6.828626e-05
-0.0004643894
-0.0006526017
-0.0005555883
3.150583e-05
-0.001143393
3.54204e-05
-0.0006317105
1.307058e-05
6.856652e-05
-0.005757437
-0.001491179
-0.0005024056
0.001545777
0.001513902
0.001748825
0.001753803
-0.005003111
-0.002701434
-0.0001003147
-0.004089318
-0.003971509
0.0002004441
-0.0003559504
-0.001222135
0.0003072093
-0.0005835136
-0.0005255922
-0.0006494889
-0.001480563
-0.001587532
-0.001756317
-0.0001357218
-0.001109939
4.525951e-05
-7.000123e-05
0.0001641771
-0.0006587965
2.820674e-05
0.0006480583
-0.0002442861
9.425216e-05
-0.000129018
-0.0002904991
-0.0001919878
-0.0001354278
-0.0002904348
-0.0002287293
-0.0003753213
-0.0001396342
4.846472e-05
-5.842672e-05
-0.0001387257
-9.042874e-05
0.0003950982
-0.006952594
-0.001681724
-0.0005871151
0.00182416
0.00177986
0.002061248
0.002064987
-0.006657607
-0.002931552
-6.486908e-05
-0.001207887
-0.004542709
0.0003014178
-0.001767417
-0.001532027
-0.001880495
-0.0009564834
-0.001573693
0.0001001552
0.0001031836
0.001738991
0.0005595009
0.0001580434
0.000126392
9.231813e-05
0.0001050194
-0.0008514445
-0.0006120184
-0.0007433581
-0.0006766283
-0.000228247
0.0002213903
0.0001707256
-0.0001671812
3.312137e-06
-0.0005328134
0.0003691509
6.390897e-06
-1.595707e-05
-4.121209e-05
-3.196509e-05
2.119437e-06
-0.0003012991
0.0001956213
9.072554e-06
-7.939571e-06
-2.214226e-05
-1.479881e-05
1.851523e-06
-0.008466663
-0.00161517
-0.0006881545
0.002140341
0.002096049
0.002423256
0.002428617
-0.008647533
-0.00264016
-0.0001105223
-0.001691685
-0.004139215
0.0002877788
-0.00260248
-0.00225808
-0.002786561
0.001961775
-0.002000401
-0.001704005
5.094612e-05
0.0009050437
0.000399212
-0.0005837815
-0.0007161685
-4.305786e-06
-0.009762752
-0.001384998
-0.000795222
0.002423481
0.002390242
0.002752476
0.002761603
-0.009986295
-0.002226477
-0.0001901412
-0.01084205
-0.003378797
9.533571e-05
-0.01274539
-0.00414241
-1.713739e-05
0.001767483
0.0009479416
0.001768049
0.001579415
-0.01534292
-0.004519232
-0.0002191939
0.002362927
0.0009176613
0.002307595
0.001747771
-0.01584792
-0.002902114
-0.0001691087
0.001695129
-0.0001389938
0.001587477
0.0004326157
-0.01517594
-0.001765153
-0.0002152896
0.00111715
-0.0005063837
0.0007409641
-4.326863e-05
-0.00120768
-4.033008e-05
0.0009348856
-0.0005828436
0.0006098238
-0.0001302667
-0.01475953
-0.01068346
-0.00116666
-0.0008646091
0.002652299
0.002627412
0.003019802
0.003030216
-0.01079173
-0.001861406
-0.000256793
-0.01151639
-0.002632524
-2.162194e-05
-0.01260708
-0.003052643
9.236503e-07
-0.0138411
-0.003240115
-4.509258e-05
-0.01436245
-0.002322148
-5.861666e-05
-0.01432649
-0.001818163
1.70448e-05
-0.001376917
-7.766328e-05
-0.01407959
-0.01142142
-0.0009583608
-0.0009560293
0.002845778
0.002828879
0.003245775
0.003248719
-0.01146684
-0.001515408
-0.0003005842
-0.01196368
-0.002073399
-6.227879e-05
-0.01263347
-0.00235275
-3.010537e-05
-0.01335985
-0.002509132
-4.607692e-06
-0.01361187
-0.0020822
1.207284e-05
-0.01363427
-0.001795582
-1.788342e-07
-0.001481716
7.975727e-06
-0.01353745
-0.01200026
-0.0008068178
-0.0009799661
0.002997263
0.002984096
0.003422275
0.003425055
-0.01192743
-0.001261241
-0.0003269993
-0.01223713
-0.00168971
-7.399509e-05
-0.01262522
-0.001929736
-3.492453e-05
-0.01305263
-0.002078488
-3.227817e-06
-0.01326229
-0.001874608
2.06057e-06
-0.01333214
-0.001736436
1.070743e-05
-0.001545568
-3.661009e-06
-0.01326463
-0.01245896
-0.000684746
-0.001049864
0.003126365
0.003114195
0.003572685
0.003573504
-0.01230725
-0.001075215
-0.0003377312
-0.01248065
-0.001438354
-7.795623e-05
-0.01271706
-0.001654792
-3.85329e-05
-0.01297801
-0.001812407
-5.133087e-06
-0.01308979
-0.001765595
2.76127e-06
-0.01311306
-0.001719207
6.044716e-06
-0.001611434
5.259033e-06
-0.01305245
-0.01287606
-0.0006100148
-0.001060214
0.003236204
0.003225891
0.003698602
0.003700846
-0.0126356
-0.0009591989
-0.0003564779
-0.01270752
-0.001283112
-8.332307e-05
-0.01282368
-0.001501242
-3.739103e-05
-0.01296591
-0.001665126
-5.043371e-06
-0.01302586
-0.001704925
-7.246109e-07
-0.01302859
-0.001722112
5.634748e-06
-0.001688114
2.556395e-06
-0.01295447
-0.01322756
-0.0005612863
-0.001105404
0.003334192
0.003324855
0.003811304
0.003813889
-0.01293181
-0.0008897117
-0.0003652377
-0.01293611
-0.001195058
-8.376142e-05
-0.01297474
-0.00142446
-3.814501e-05
-0.01303213
-0.001602231
-5.507869e-06
-0.01303543
-0.001700406
-1.218946e-06
-0.01299637
-0.001765889
4.714193e-06
-0.001785209
4.197367e-06
-0.01290347
-0.0135727
-0.000542536
-0.001124937
0.003425824
0.003417044
0.003916324
0.0039197
-0.01322042
-0.0008633359
-0.0003786561
-0.01316655
-0.001162532
-8.640189e-05
-0.01314751
-0.001405479
-3.801502e-05
-0.01314084
-0.001603105
-5.805072e-06
-0.01309775
-0.001742133
-1.362704e-06
-0.01302428
-0.001844236
4.8772e-06
-0.001906694
3.934625e-06
-0.01290673
-0.01390479
-0.0005444049
-0.001154177
0.003514777
0.003505978
0.004018102
0.004021981
-0.01350828
-0.0008704089
-0.0003894362
-0.01340854
-0.001174473
-8.779921e-05
-0.01334017
-0.00143523
-3.862288e-05
-0.01328469
-0.001652736
-5.85105e-06
-0.01319983
-0.001825826
-1.159577e-06
-0.01308944
-0.00195934
4.706765e-06
-0.00205545
4.298234e-06
-0.01294498
-0.01424348
-0.0005648425
-0.001182386
0.00360467
0.00359535
0.004121017
0.00412527
-0.01380791
-0.0009060171
-0.000399964
-0.01366894
-0.001223861
-8.95869e-05
-0.01355984
-0.001505974
-3.835049e-05
-0.01345943
-0.001747269
-5.88275e-06
-0.01333518
-0.001949004
-1.068417e-06
-0.01318891
-0.0021104
4.785101e-06
-0.002234072
4.371732e-06
-0.01301466
-0.01459708
-0.000601563
-0.00121352
0.003698321
0.003688091
0.004228219
0.004232687
-0.01412597
-0.0009671361
-0.0004099848
-0.01395057
-0.00130754
-9.172021e-05
-0.0138022
-0.001615441
-3.890861e-05
-0.01366069
-0.001882656
-6.119843e-06
-0.01349717
-0.002111507
-1.020281e-06
-0.01331424
-0.002298239
4.911426e-06
-0.002444779
4.531429e-06
-0.01310807
-0.01497596
-0.0006540786
-0.001246981
0.003798393
0.003786952
0.004342739
0.004347376
-0.01446994
-0.001053183
-0.0004199763
-0.01425946
-0.001423871
-9.414984e-05
-0.01407254
-0.001762838
-3.951979e-05
-0.01388957
-0.002059477
-6.152037e-06
-0.01368491
-0.00231521
-9.598423e-07
-0.01346236
-0.002525687
4.898832e-06
-0.002691297
4.619055e-06
-0.01322046
-0.01538951
-0.000722832
-0.001283338
0.003907343
0.00389448
0.00446748
0.004472302
-0.01484722
-0.001165054
-0.0004304185
-0.01460009
-0.001574035
-9.697276e-05
-0.01437257
-0.001949978
-4.037998e-05
-0.01414586
-0.00228016
-6.027128e-06
-0.01389599
-0.002564052
-1.02806e-06
-0.01362918
-0.002797423
4.92872e-06
-0.002978367
4.710563e-06
-0.01334682
-0.01584715
-0.0008089562
-0.001323524
0.004027814
0.00401325
0.004605349
0.004610384
-0.01526551
-0.00130506
-0.0004416303
-0.01497815
-0.001761114
-0.0001002843
-0.01470594
-0.002180792
-4.139683e-05
-0.01443023
-0.002549843
-6.026923e-06
-0.01412901
-0.002864026
-1.245051e-06
-0.01381148
-0.003119927
4.975154e-06
-0.00331275
4.772271e-06
-0.01348187
-0.0163591
-0.000914149
-0.001368837
0.004162591
0.004146133
0.004759503
0.004764906
-0.0157342
-0.001476134
-0.0004538277
-0.01540116
-0.001990094
-0.0001040651
-0.01507775
-0.002461719
-4.247491e-05
-0.01474551
-0.002876413
-5.673287e-06
-0.01438423
-0.003224055
-1.255963e-06
-0.01400678
-0.00350263
5.257897e-06
-0.003704133
4.920286e-06
-0.01362032
-0.01693549
-0.001042074
-0.001419772
0.004314592
0.004295896
0.004933388
0.004939312
-0.01626131
-0.001682994
-0.000467317
-0.0158763
-0.00226722
-0.000107889
-0.01549359
-0.002800476
-4.395219e-05
-0.01509496
-0.003269408
-5.630545e-06
-0.01466164
-0.003655987
-1.389706e-06
-0.01421139
-0.003958373
5.490645e-06
-0.004164917
5.024059e-06
-0.01375563
-0.01759056
-0.00147919
0.004487638
0.004466077
0.005131365
0.005137976
-0.001195383
-0.01686151
-0.0004811065
-0.001930932
-0.0164167
-0.000111203
-0.002600831
-0.01596316
-4.50999e-05
-0.003208915
-0.0154843
-5.170454e-06
-0.003743098
-0.01496295
-8.464107e-07
-0.004176487
-0.01442224
6.164175e-06
-0.00450525
5.592408e-06
-0.004712475
-0.01388028
-3.022834e-06
0.0002423882
-0.0009608182
-9.82735e-05
1.074989e-05
0.000284926
0.0002411639
0.0002828864
-0.003435353
-0.0004738501
-6.800002e-05
0.0001506819
-0.0001819063
7.524385e-05
-2.643001e-05
0.0008546752
0.001113718
0.000891682
0.001099538
-0.002767827
-0.0006790549
2.337283e-05
0.0001859926
-0.0001563841
1.111533e-05
-5.256833e-05
-0.002128171
-0.0006855405
-4.69445e-05
0.0001762991
-0.0001064699
4.288285e-05
-1.988343e-05
-0.001489893
-0.0006750405
-2.802705e-05
0.0001319445
-7.165239e-05
2.653608e-05
-2.2039e-05
-0.001005492
-0.0005104579
-1.850305e-05
8.967131e-05
-4.747024e-05
2.033194e-05
-1.797316e-05
-0.0006500185
-0.0003702464
-1.128575e-05
5.883508e-05
-3.173316e-05
1.196747e-05
-1.301107e-05
-0.000243752
-4.560975e-06
3.689628e-05
-2.095406e-05
6.119741e-06
-9.763458e-06
-0.0004140042
5.314375e-05
5.501523e-05
-0.001206054
-5.107552e-05
-4.20429e-05
-1.079828e-05
7.787671e-05
-1.167022e-05
-5.765011e-06
8.061472e-05
-2.922896e-06
-0.004530412
-0.0006685796
-0.0001393974
0.0001289729
1.120103e-05
0.0001179626
5.425543e-06
0.001212813
0.001231147
0.001187857
0.001188294
-0.004055684
-0.0009880006
3.022547e-06
-0.003350484
-0.001402953
-3.361468e-05
-0.00246183
-0.001612453
-3.047676e-05
-0.001653033
-0.001519143
-3.099941e-05
-0.001054917
-0.001140505
-2.537726e-05
-0.0006555655
-0.000787581
-1.68124e-05
-0.0005071716
-8.834442e-06
-0.0004042831
0.0001005974
5.193524e-05
-0.001291787
-4.421831e-05
-0.0001546275
-4.190623e-06
9.95497e-05
-5.376667e-06
-0.005057402
-0.0009736499
-0.0001381352
0.001297935
0.001306642
0.001280343
0.001276993
-0.004403936
-0.001646083
-0.0001273489
-0.003530429
-0.002272269
-4.277921e-05
-0.002397485
-0.002750449
-3.987886e-05
-0.001360268
-0.002549856
-2.253483e-05
-0.0007223911
-0.001773126
-9.800337e-06
-0.0003824893
-0.001134339
-1.018609e-05
-0.0006864897
-8.145293e-06
-0.0002054568
0.0001137296
3.96748e-05
-0.001450447
-4.231101e-05
-0.0001958972
-4.287169e-06
0.0001123303
-6.272319e-06
-0.005675623
-0.001341765
-0.0002002914
0.001460789
0.001470144
0.001436364
0.001440443
-0.004942903
-0.002355024
-0.0001173092
-0.003830507
-0.003355205
7.17382e-06
-0.002203939
-0.004293809
5.433337e-05
-0.0008128782
-0.000974561
4.832038e-05
-0.0009447088
-0.0009778087
-0.0009606233
-0.0001165389
-0.002427623
2.64442e-05
7.858838e-05
-0.001313199
1.915246e-05
-0.0007161431
2.209634e-05
9.9216e-05
0.0001303913
5.195978e-05
-0.001667861
-5.671527e-05
-0.0002271986
-5.055267e-06
0.0001281905
-7.127051e-06
-0.006649064
-0.001682003
-0.000220463
0.001684743
0.001699723
0.00165656
0.001666336
-0.005898483
-0.003076409
-0.0001295106
-0.004603346
-0.004537936
8.803784e-05
-0.000473773
-0.001537936
0.0001237749
-0.000608193
-0.0004777609
-0.0005986444
-0.001735877
-0.001526219
-0.001755317
-1.912168e-05
-0.0001476379
-0.00130179
2.021546e-05
0.001084714
-0.0007683725
0.0001532492
-0.0004830545
-0.000769685
-0.0004747255
-1.655204e-05
3.681632e-05
-0.0001385304
-5.574607e-05
-8.734914e-05
-0.0004098605
-8.458004e-05
-0.0004139474
0.000696561
-0.000266876
5.199116e-05
-0.0001788806
-0.0002707409
-0.0001662873
-0.0001317128
1.256361e-05
-9.26344e-05
-0.0001268617
-9.183092e-05
0.0004593588
0.0001509141
6.599763e-05
-0.001950602
-6.759724e-05
-0.0002620305
-6.213444e-06
0.0001481598
-8.098008e-06
-0.008041244
-0.001878754
-0.0002658024
0.00198694
0.002007227
0.001954468
0.001968048
-0.00765644
-0.003394371
-0.0001317119
-0.001489145
-0.005289335
0.0001376837
-0.001893085
-0.001475917
-0.001883159
-5.136017e-05
-0.001120384
-0.00190599
5.065274e-05
-5.108792e-05
6.226592e-05
0.001906821
0.0006560237
0.0001540494
0.0001055072
0.0001554591
0.0001018557
-0.0008170558
-0.0007354938
-0.0008185875
-0.0007197571
1.118967e-05
-0.0002386034
0.0009089463
-5.64089e-06
-0.0001419529
-5.38666e-05
-0.0001361061
-5.286641e-05
-0.0004140121
-0.0002360288
-0.0004094311
2.070939e-07
-0.0006129622
0.0004125887
-7.018115e-05
3.471679e-06
-3.697669e-06
-0.000308249
0.00021229
-4.35144e-05
1.145819e-05
0.0001732657
7.404677e-05
-0.002271077
-6.963865e-05
-0.0003009035
-8.089901e-06
0.0001702491
-9.417009e-06
-0.009759598
-0.001793047
-0.000318659
0.002335171
0.00235951
0.002297631
0.002312083
-0.009951094
-0.003128927
-0.0001844704
-0.002275071
-0.004939005
0.0001474761
-0.002849383
-0.002260583
-0.002776085
-2.267412e-05
0.002098173
-0.002322814
-0.002070568
4.281189e-05
-1.223121e-05
0.000962193
0.0006191324
-0.000738053
-0.000837097
6.055848e-06
-0.002713373
-0.0001074768
0.0001444876
0.0003749728
-8.316883e-05
0.001143319
0.001241239
0.002553948
-0.002382934
-0.000173364
-0.000154896
0.0002167815
-5.953564e-05
0.0001934288
7.045978e-05
-0.002570079
-6.349749e-05
-0.00033537
-1.133263e-05
0.0001906778
-1.165642e-05
-0.01121389
-0.001543695
-0.000370301
0.002647924
0.002671809
0.002605137
0.002614748
-0.01164874
-0.002615519
-0.0002686988
-0.01257347
-0.003914197
-4.746035e-06
-0.0146804
-0.004840668
-1.773438e-05
0.001867171
0.001651403
0.001816489
0.001613133
-0.01776715
-0.005361582
-9.252396e-05
0.002348412
0.001830313
0.002306689
0.001836243
-0.01870622
-0.003586233
2.031931e-05
0.001561051
0.0005408769
0.001650324
0.000583626
-0.01770924
-0.002175059
-0.0001349214
0.0005993268
2.92685e-05
0.00052771
-5.859775e-05
-0.001520892
0.0002022967
0.0004331986
-4.424432e-05
0.0002906533
4.736923e-05
-0.01715795
0.0002099388
6.136825e-05
-0.002821043
-5.381826e-05
-0.0003629845
-1.468627e-05
0.0002079528
-1.369269e-05
-0.01223953
-0.001287611
-0.0004290152
0.002904342
0.002925392
0.002857275
0.002860844
-0.0126242
-0.002146074
-0.0003415652
-0.01345962
-0.003023888
-7.651053e-05
-0.01471581
-0.003561076
-2.248256e-05
-0.01621066
-0.003895208
-1.661492e-05
-0.01693899
-0.002879947
-3.657304e-05
-0.01695646
-0.002201757
6.120933e-05
-0.001678004
-0.0001642821
-0.01671273
0.0002236522
5.209485e-05
-0.003032675
-4.466271e-05
-0.000386095
-1.691097e-05
0.0002223812
-1.529635e-05
-0.01308187
-0.001067975
-0.0004775968
0.003117132
0.003135574
0.003065187
0.003065911
-0.01338383
-0.001749016
-0.0003956831
-0.01393261
-0.002402954
-0.0001344321
-0.01470087
-0.002754528
-6.840115e-05
-0.01562065
-0.002956977
-2.305181e-05
-0.01599342
-0.002492181
-2.924509e-06
-0.01602565
-0.002148029
-2.168293e-05
-0.001769438
1.351151e-05
-0.01593975
0.0002345501
4.310007e-05
-0.003205413
-3.708409e-05
-0.0004046212
-1.87126e-05
0.0002340295
-1.64913e-05
-0.01372436
-0.0008871939
-0.0005073861
0.003290779
0.003308903
0.003235266
0.003236056
-0.01390997
-0.001458052
-0.0004323602
-0.01425964
-0.001963925
-0.000163346
-0.01470793
-0.002255124
-8.604633e-05
-0.01521147
-0.002438747
-1.791966e-05
-0.0154846
-0.002216588
-4.003694e-07
-0.01558771
-0.002048845
1.463269e-05
-0.00182338
-1.92022e-05
-0.01551823
0.0002436346
3.638045e-05
-0.003348873
-3.132216e-05
-0.0004207632
-1.991362e-05
0.0002435936
-1.761065e-05
-0.01426989
-0.0007647005
-0.0005420912
0.003434121
0.003452678
0.003376906
0.003375923
-0.01435543
-0.001250807
-0.0004594347
-0.01454655
-0.001671097
-0.0001796709
-0.01480687
-0.001934146
-9.919039e-05
-0.01510487
-0.00211684
-2.904221e-05
-0.01524524
-0.002067
-6.456057e-06
-0.01528136
-0.002011667
4.989447e-06
-0.001885099
6.817763e-06
-0.0152212
0.0002514108
3.125089e-05
-0.00347183
-2.739705e-05
-0.0004343903
-2.067435e-05
0.0002517533
-1.832384e-05
-0.01471751
-0.0006766259
-0.0005569022
0.003556537
0.003575682
0.003497593
0.003496308
-0.01473478
-0.001112496
-0.0004775171
-0.01480874
-0.001491217
-0.0001892439
-0.01492669
-0.001750454
-0.0001031318
-0.01507682
-0.001941323
-3.042921e-05
-0.01514714
-0.001988352
-9.050871e-06
-0.01515521
-0.002006713
8.745722e-06
-0.001966434
3.870699e-06
-0.01507519
0.0002583048
2.805055e-05
-0.003580761
-2.495698e-05
-0.0004466808
-2.138634e-05
0.0002589169
-1.899816e-05
-0.01513691
-0.0006274312
-0.0005797429
0.003666114
0.003686025
0.003605863
0.003604056
-0.01508612
-0.001034386
-0.000494145
-0.01507503
-0.001389371
-0.0001966932
-0.01509937
-0.00165751
-0.0001067489
-0.01514791
-0.001865117
-3.317945e-05
-0.01514822
-0.001979485
-9.778269e-06
-0.01510422
-0.002053916
7.922182e-06
-0.002075725
9.391211e-06
-0.01500012
0.0002647408
2.611639e-05
-0.0036819
-2.367342e-05
-0.0004578431
-2.196388e-05
0.0002655356
-1.955077e-05
-0.01552061
-0.0006040144
-0.0005930715
0.003767664
0.003788071
0.003705802
0.003703791
-0.01542377
-0.00100232
-0.0005075634
-0.01534488
-0.001352123
-0.0002025395
-0.01529763
-0.001633644
-0.0001091264
-0.01527024
-0.001863793
-3.452811e-05
-0.01521537
-0.002025709
-1.00057e-05
-0.0151294
-0.002143228
8.217831e-06
-0.002215397
9.498885e-06
-0.01499529
0.0002709465
2.531784e-05
-0.00377938
-2.341139e-05
-0.0004685047
-2.253919e-05
0.0002718843
-2.007765e-05
-0.01590032
-0.0006051814
-0.000609201
0.003866041
0.003887145
0.003802682
0.003800649
-0.01576264
-0.001008537
-0.0005209082
-0.01562861
-0.001366177
-0.0002077687
-0.01552135
-0.001667389
-0.0001121448
-0.01543511
-0.001920638
-3.524199e-05
-0.01533062
-0.00212175
-9.608464e-06
-0.01520121
-0.00227615
8.215177e-06
-0.002387591
1.042934e-05
-0.01503514
0.0002772099
2.547673e-05
-0.003877247
-2.401195e-05
-0.0004791219
-2.308068e-05
0.0002782421
-2.056918e-05
-0.01628745
-0.0006267803
-0.0006246338
0.003965239
0.003987106
0.003900401
0.003898547
-0.01611418
-0.001047558
-0.0005342114
-0.01593393
-0.001423593
-0.0002124219
-0.01577613
-0.001749578
-0.0001139587
-0.01563675
-0.00202986
-3.604279e-05
-0.01548588
-0.002264128
-9.558945e-06
-0.01531434
-0.002451174
8.268697e-06
-0.002594679
1.066117e-05
-0.01511354
0.0002836917
2.650521e-05
-0.003978613
-2.538333e-05
-0.0004900199
-2.364454e-05
0.0002847927
-2.106526e-05
-0.01669304
-0.0006669422
-0.0006420588
0.004068325
0.004090978
0.00400197
0.00400047
-0.01648638
-0.001116212
-0.0005479872
-0.0162633
-0.001520581
-0.0002178133
-0.01605813
-0.001876949
-0.0001167117
-0.01586988
-0.002187184
-3.704891e-05
-0.01567301
-0.002452472
-9.539886e-06
-0.01545868
-0.002669112
8.515243e-06
-0.002839154
1.097496e-05
-0.01522065
0.0002905715
2.836799e-05
-0.00408647
-2.748277e-05
-0.0005014664
-2.426328e-05
0.0002917254
-2.159498e-05
-0.01712838
-0.0007249012
-0.0006607032
0.004178327
0.004201863
0.00411042
0.004109454
-0.01688809
-0.001213856
-0.0005626209
-0.01662389
-0.001655534
-0.0002233985
-0.01637284
-0.002048323
-0.0001191995
-0.01613547
-0.002392796
-3.791023e-05
-0.01589022
-0.002688928
-9.749734e-06
-0.01562993
-0.002933062
8.556196e-06
-0.003125327
1.116199e-05
-0.0153503
0.0002980239
3.103242e-05
-0.0042036
-3.030977e-05
-0.0005137539
-2.494357e-05
0.0002992085
-2.217518e-05
-0.01760327
-0.0008008948
-0.0006812203
0.004298051
0.004322515
0.004228453
0.00422813
-0.01732804
-0.00134099
-0.0005785153
-0.01702114
-0.001830044
-0.0002293649
-0.01672213
-0.002265793
-0.0001219211
-0.01643321
-0.002649298
-3.844385e-05
-0.01613498
-0.002978054
-1.012741e-05
-0.01582315
-0.00324854
8.576791e-06
-0.003458691
1.14141e-05
-0.01549649
0.0003062122
3.449727e-05
-0.004332781
-3.391329e-05
-0.0005271571
-2.570115e-05
0.0003074136
-2.281688e-05
-0.01812842
-0.0008962305
-0.0007039642
0.004430313
0.004455773
0.004358782
0.00435933
-0.01781476
-0.001500301
-0.0005959829
-0.01746162
-0.002047494
-0.0002359699
-0.01710974
-0.002534001
-0.0001250697
-0.01676321
-0.002962748
-3.910983e-05
-0.01640531
-0.003326503
-1.069373e-05
-0.01603445
-0.003623099
8.674158e-06
-0.003847023
1.167262e-05
-0.01565302
0.000315312
3.88385e-05
-0.004476991
-3.839926e-05
-0.0005419674
-2.654564e-05
0.0003165098
-2.353505e-05
-0.01871546
-0.001013677
-0.0007296869
0.004578181
0.004604847
0.004504504
0.004506227
-0.01835836
-0.001696062
-0.0006151662
-0.01795434
-0.002312986
-0.0002425971
-0.01754226
-0.002860753
-0.0001278011
-0.01712939
-0.003342309
-3.898064e-05
-0.01670147
-0.003744792
-1.089271e-05
-0.01626096
-0.004067708
9.359385e-06
-0.004301668
1.229752e-05
-0.01581369
0.0003255167
4.417355e-05
-0.004639604
-4.390678e-05
-0.0005584926
-2.748731e-05
0.000326696
-2.4335e-05
-0.01937779
-0.001156434
-0.0007586437
0.004745099
0.004773108
0.004669013
0.004672202
-0.01897116
-0.001933141
-0.0006368761
-0.01850799
-0.002634008
-0.0002500323
-0.01802604
-0.003255299
-0.0001313567
-0.01753542
-0.003799231
-3.932967e-05
-0.01702378
-0.00424676
-1.106521e-05
-0.01649878
-0.004597279
1.006169e-05
-0.004837173
1.299571e-05
-0.01597124
-0.004964747
3.110385e-06
-0.0001737193
0.004878245
0.0001088998
0.0001482109
-0.02013367
-0.0007910336
-0.001328372
0.004861348
0.004935087
0.004856267
-0.01966998
-0.0006594927
-0.002218445
-0.01913747
-0.0002566301
-0.00302109
-0.01857293
-0.0001336582
-0.003731285
-0.01798901
-3.819255e-05
-0.004350126
-0.01737509
-9.331051e-06
-0.004852195
-0.016745
1.217225e-05
-0.005233379
1.511467e-05
-0.005474235
-0.01611746
0.00023999
1.163918e-06
-0.0009447147
-0.0001056204
1.632385e-07
0.0002825342
0.0002409642
0.0002855197
-0.003465594
-0.0005406998
-4.169534e-05
0.0008910296
0.001101747
0.0008952789
0.001091933
-0.002766469
-0.000687164
1.141195e-05
-0.002131859
-0.0006704452
-1.110984e-05
-0.001492139
-0.0006567858
-1.096134e-05
-0.001004871
-0.0004979767
-7.795287e-06
-0.0006506486
-0.0003597732
-5.734577e-06
-0.0002384381
-2.545492e-06
-0.0004142259
9.668221e-05
3.381798e-05
-0.001199017
-0.0001626935
-1.894808e-05
4.207893e-06
9.607643e-05
4.407676e-06
-0.004463038
-0.0006917024
-6.941537e-05
0.0001440095
2.812694e-05
0.0001461605
3.176568e-05
0.001174743
0.001202102
0.001170206
0.001187646
-0.003992392
-0.001017921
9.597726e-06
-0.003325773
-0.001363877
-2.352143e-05
-0.002441701
-0.001566712
-1.828335e-05
-0.001641511
-0.001467899
-2.007642e-05
-0.001047886
-0.001100826
-1.615347e-05
-0.0006534683
-0.0007586939
-1.230946e-05
-0.000490692
-5.512908e-06
-0.000404536
-0.005118087
-0.0003643841
-9.460631e-05
0.0002199001
-7.018521e-05
0.0003188809
-6.639773e-05
0.0002430224
1.584422e-07
0.0003447429
6.867023e-06
-0.004917251
-0.0009697325
-6.094081e-05
-0.004339802
-0.001651144
-7.157573e-05
-0.00350249
-0.002213984
-2.998407e-05
-0.002398293
-0.002687414
-2.337419e-05
-0.00136368
-0.002509847
-1.520017e-05
-0.0007259764
-0.001736305
-1.202443e-05
-0.0003898112
-0.001093859
-1.11863e-05
-0.0006733207
-5.407564e-06
-0.0002099202
-0.00577671
-0.0003833879
-0.0001603324
0.0003934472
-6.912154e-05
0.0003871549
-7.411346e-05
-0.005523418
-0.001326489
-9.682553e-05
-0.004865798
-0.002344899
-8.117482e-05
-0.003801493
-0.003276276
5.160761e-06
-0.002208142
-0.004270107
4.367478e-05
-0.0008403374
-0.0009826606
4.369017e-05
-0.0009531064
-0.0009795091
-0.0009577461
-0.0001495547
-0.002425081
2.443699e-05
6.864517e-05
-0.001303106
1.019906e-05
-0.0006899042
1.521197e-05
9.211307e-05
-0.006673123
-0.000473425
-0.0002242753
0.000468563
-6.946962e-05
0.0004493422
-8.053405e-05
-0.006459305
-0.001658245
-0.0001025242
-0.005783402
-0.003068574
-8.173773e-05
-0.004570292
-0.004470715
6.936655e-05
-0.0004973327
-0.001554412
9.325388e-05
-0.0006188446
-0.0004872728
-0.0006116587
-0.001746424
-0.001538627
-0.001755306
-2.741064e-05
-0.0001653375
-0.001300812
1.356609e-05
0.00109169
-0.0007626521
5.458579e-05
-0.0004716207
-0.0007625611
-0.0004720175
-8.351881e-05
-0.0003951276
-7.598645e-05
-0.0003946234
0.0006955153
-0.000281866
4.587161e-05
-0.0001770103
-0.0002819033
-0.0001600317
-0.0004447085
4.399091e-06
0.0004584842
-0.007875319
-0.0005156936
-0.0002567276
0.0005445002
-8.23149e-05
0.0005208549
-9.346165e-05
-0.007814725
-0.001863495
-0.0001211463
-0.00755573
-0.003378697
-8.058254e-05
-0.001504168
-0.005262799
0.0001028429
-0.001875319
-0.001482078
-0.001867241
-5.54659e-05
-0.001124237
-0.00190885
2.997254e-05
-3.831311e-05
3.087422e-05
0.001885603
0.000640182
0.0001563003
0.0001078076
0.0001575548
0.0001050002
-0.0008054235
-0.0007199739
-0.0008066816
-0.00071293
-0.0002351944
-1.215695e-06
0.0009092791
3.238328e-07
-0.0001388981
-0.0001395013
-5.401109e-05
-5.27949e-05
-0.000408836
-0.0002341457
-0.000407658
-0.0006081411
3.272722e-06
0.0004014029
-7.594645e-05
-2.453991e-06
5.862433e-06
-1.786013e-05
1.659157e-05
-1.666386e-05
1.38424e-05
-0.0003107548
-0.0001442315
-0.0003034983
-0.0001509906
0.0004629944
-0.009246646
-0.0004940261
-0.0003005153
0.0006286688
-9.277105e-05
0.0006036859
-0.000103676
-0.009486769
-0.001795568
-0.0001464604
-0.009810199
-0.003124241
-0.0001154978
-0.002257393
-0.004961318
9.348422e-05
-0.002809903
-0.002233715
-0.002756676
-4.123424e-05
0.002072465
-0.002281818
-0.002031688
2.488219e-05
-1.042588e-05
0.0009512504
0.0006065156
-0.0007244335
-0.0008286714
5.764685e-06
-9.515909e-05
-0.002382358
-7.663038e-05
4.179485e-05
0.001244993
0.001267359
-0.00127662
-0.0001297034
0.000237254
-0.0003458622
0.0002736228
-0.0001172746
0.002022728
0.004348602
0.00204873
0.004288638
-0.01135011
-0.01049725
-0.0004333264
-0.0003383048
0.0007022355
-0.0001006286
0.0006795797
-0.0001117978
-0.01092909
-0.001557137
-0.00017689
-0.01151893
-0.002625262
-0.0001778375
-0.01250763
-0.003984645
7.27717e-06
-0.01451189
-0.004893613
4.895559e-07
0.001839572
0.001627629
0.001804554
0.001607892
-0.01741105
-0.005485416
-6.791891e-05
0.002326488
0.001860004
0.002313081
0.001860401
-0.0181542
-0.003802819
-2.021397e-06
0.00163413
0.0006409329
0.001645365
0.0006478757
-0.01714422
-0.002439679
-0.000155766
0.0007063416
2.108994e-05
0.0007047215
1.839414e-05
-0.001389729
0.0002047447
-0.01703356
-0.01150569
-0.0003693345
-0.0003753157
0.0007623732
-0.0001092127
0.000743029
-0.0001165113
-0.01196771
-0.001314452
-0.0002096814
-0.01253583
-0.002160853
-0.0002378487
-0.0134241
-0.003095114
-7.777242e-05
-0.01467922
-0.003643472
-1.750721e-05
-0.016159
-0.004015792
-6.456302e-06
-0.01699042
-0.003015818
7.84833e-06
-0.01709045
-0.002348104
6.965841e-05
-0.001779135
-9.647593e-05
-0.01676885
-0.01237022
-0.0003086793
-0.0004103281
0.0008133814
-0.0001134341
0.0007970486
-0.0001176079
-0.01283222
-0.001087529
-0.0002425226
-0.01333215
-0.001763074
-0.000293525
-0.01395886
-0.002450827
-0.0001520104
-0.01479183
-0.002812012
-6.689929e-05
-0.01574623
-0.003047967
-3.647679e-05
-0.01616524
-0.002583042
-1.668374e-05
-0.0162618
-0.002242433
-3.079494e-05
-0.001787671
1.33119e-05
-0.01625307
-0.01305041
-0.0002609656
-0.000435873
0.0008536762
-0.0001183075
0.0008400882
-0.0001203728
-0.01346943
-0.0009086239
-0.0002672673
-0.01387044
-0.001470265
-0.0003241627
-0.01430085
-0.001998325
-0.0001854425
-0.0148072
-0.002299641
-9.20621e-05
-0.01535232
-0.002496089
-2.46861e-05
-0.01566187
-0.002275483
1.595897e-06
-0.01579597
-0.00210364
9.93426e-06
-0.001852338
-7.575428e-06
-0.01574293
-0.01362704
-0.0002241384
-0.0004589681
0.0008887442
-0.0001212193
0.0008767876
-0.0001229466
-0.01401671
-0.0007754542
-0.0002855914
-0.01433621
-0.001258075
-0.0003521317
-0.01460502
-0.001700201
-0.0002089825
-0.01492238
-0.001970095
-0.0001113775
-0.01525074
-0.002158463
-3.830854e-05
-0.0154191
-0.002106329
-7.247647e-06
-0.01547431
-0.002052399
8.959832e-06
-0.001905466
1.168374e-05
-0.01542605
-0.01411236
-0.0002004171
-0.0004760585
0.000917917
-0.0001244006
0.0009071824
-0.0001258542
-0.0144571
-0.0006886272
-0.0002989943
-0.01470914
-0.001117499
-0.0003660504
-0.0148705
-0.001509894
-0.00021819
-0.01504561
-0.00178004
-0.0001180805
-0.0152225
-0.001972572
-3.942633e-05
-0.01531149
-0.002018775
-7.609644e-06
-0.0153315
-0.002036069
1.242157e-05
-0.001990007
9.472581e-06
-0.01525256
-0.01454879
-0.000185249
-0.0004932292
0.0009447364
-0.000126693
0.0009346663
-0.0001282817
-0.01487104
-0.0006368774
-0.0003092417
-0.01506347