/*--------------------------------*- C++ -*----------------------------------*\
  =========                 |
  \\      /  F ield         | OpenFOAM: The Open Source CFD Toolbox
   \\    /   O peration     | Website:  https://openfoam.org
    \\  /    A nd           | Version:  7
     \\/     M anipulation  |
\*---------------------------------------------------------------------------*/
FoamFile
{
    version     2.0;
    format      ascii;
    class       volScalarField;
    location    "0.08";
    object      k;
}
// * * * * * * * * * * * * * * * * * * * * * * * * * * * * * * * * * * * * * //

dimensions      [0 2 -2 0 0 0 0];

internalField   nonuniform List<scalar> 
77997
(
0.003699776
0.003697504
0.003697146
0.003697072
0.003697062
0.00369706
0.003697061
0.003697062
0.003697063
0.003699775
0.003726723
0.003726232
0.003726044
0.003725999
0.003725988
0.003725987
0.003725988
0.00372599
0.003697508
0.003726272
0.003725791
0.003725603
0.003725558
0.003725549
0.003725547
0.003725548
0.00372555
0.00369719
0.003726277
0.003725887
0.003725735
0.003725702
0.003725695
0.003725694
0.003725696
0.003725698
0.003697261
0.0037267
0.003726601
0.003726514
0.003726493
0.003726487
0.003726486
0.003726488
0.003726491
0.003698354
0.003700073
0.003699046
0.00369888
0.003698861
0.003698858
0.003698857
0.003698862
0.003698873
0.003698882
0.003627771
0.003643021
0.003642746
0.003642722
0.003642713
0.003642704
0.003642735
0.003642686
0.003642485
0.003642714
0.003763135
0.003765261
0.00376662
0.003767902
0.003769475
0.003771402
0.003773699
0.003776393
0.003779517
0.003747535
0.003747758
0.00374788
0.003748131
0.003748433
0.003748808
0.003749251
0.00374977
0.003750369
0.003747427
0.003747703
0.003747826
0.003748031
0.003748336
0.003748713
0.003749168
0.0037497
0.003750313
0.0037475
0.003747973
0.003748176
0.00374842
0.003748743
0.003749132
0.003749599
0.003750142
0.003750769
0.003747186
0.003747646
0.003747821
0.003748053
0.003748367
0.003748748
0.003749206
0.003749739
0.003750355
0.003746942
0.003747398
0.003747594
0.003747833
0.003748147
0.003748524
0.003748975
0.003749498
0.003750101
0.00374657
0.003746998
0.003747176
0.003747408
0.003747713
0.003748081
0.003748521
0.003749031
0.003749616
0.003746186
0.003746582
0.003746756
0.003746984
0.003747284
0.003747644
0.003748072
0.003748569
0.003749138
0.00374574
0.003746098
0.003746258
0.003746478
0.003746771
0.003747122
0.00374754
0.003748023
0.003748575
0.00374526
0.003745578
0.003745726
0.003745939
0.003746225
0.003746568
0.003746976
0.003747446
0.003747983
0.003744738
0.003745013
0.003745147
0.003745353
0.003745632
0.003745968
0.003746366
0.003746825
0.003747346
0.003744184
0.003744413
0.003744534
0.003744732
0.003745005
0.003745334
0.003745724
0.003746172
0.003746681
0.003743599
0.00374378
0.003743886
0.003744077
0.003744345
0.003744668
0.003745051
0.003745491
0.003745988
0.003742987
0.003743118
0.00374321
0.003743394
0.003743657
0.003743975
0.003744353
0.003744786
0.003745275
0.003742352
0.003742431
0.003742508
0.003742686
0.003742945
0.00374326
0.003743634
0.003744063
0.003744546
0.003741696
0.003741722
0.003741784
0.003741956
0.003742213
0.003742525
0.003742898
0.003743324
0.003743804
0.003741024
0.003740997
0.003741043
0.00374121
0.003741463
0.003741775
0.003742147
0.003742575
0.003743055
0.003700003
0.003726194
0.003725865
0.003725754
0.003725737
0.003725734
0.003725732
0.003725731
0.003699997
0.003473307
0.00347341
0.003473407
0.003473406
0.003473406
0.003473406
0.003473406
0.003473406
0.003726177
0.00347341
0.003473301
0.0034733
0.0034733
0.0034733
0.0034733
0.0034733
0.0034733
0.003725978
0.003473407
0.0034733
0.003473299
0.003473299
0.003473299
0.003473299
0.003473299
0.003473299
0.003726266
0.003473404
0.003473298
0.003473297
0.003473297
0.003473297
0.003473297
0.003473297
0.003473297
0.003699641
0.003473285
0.003473418
0.003473416
0.003473414
0.003473414
0.003473414
0.003473414
0.003473414
0.003700202
0.003694047
0.003692875
0.003692621
0.003692586
0.003692581
0.003692582
0.003692589
0.003692602
0.003475298
0.003475392
0.00347535
0.003475402
0.003475435
0.003475484
0.003475537
0.003475601
0.003475674
0.003743252
0.003474292
0.003474287
0.003474303
0.003474325
0.003474352
0.003474384
0.003474422
0.003474467
0.00347452
0.003746937
0.003474243
0.003474249
0.003474266
0.003474296
0.003474324
0.003474359
0.003474399
0.003474446
0.003474502
0.003746545
0.003474248
0.003474248
0.003474264
0.003474288
0.003474319
0.003474354
0.003474396
0.003474444
0.003474501
0.003746031
0.003474257
0.003474246
0.003474268
0.003474296
0.003474329
0.003474367
0.00347441
0.003474461
0.003474519
0.003745616
0.003474244
0.003474243
0.003474266
0.003474295
0.003474328
0.003474367
0.003474412
0.003474463
0.003474522
0.003744636
0.003474251
0.003474239
0.003474265
0.003474296
0.003474332
0.003474372
0.003474418
0.00347447
0.003474529
0.003743834
0.003474241
0.003474233
0.00347426
0.003474292
0.00347433
0.003474371
0.003474419
0.003474471
0.003474529
0.003742783
0.00347424
0.003474225
0.003474254
0.003474288
0.003474325
0.003474368
0.003474416
0.003474468
0.003474526
0.003741708
0.00347423
0.003474215
0.003474244
0.003474279
0.003474318
0.003474361
0.003474409
0.003474461
0.003474517
0.003740541
0.00347422
0.003474203
0.003474233
0.003474269
0.003474308
0.003474351
0.003474399
0.00347445
0.003474506
0.003739307
0.003474205
0.003474189
0.00347422
0.003474256
0.003474295
0.003474338
0.003474386
0.003474436
0.00347449
0.003738013
0.003474185
0.003474173
0.003474204
0.003474241
0.00347428
0.003474322
0.00347437
0.003474419
0.003474472
0.003736656
0.003474161
0.003474154
0.003474186
0.003474223
0.003474262
0.003474304
0.003474351
0.003474399
0.00347445
0.003735249
0.003474135
0.003474134
0.003474165
0.003474203
0.003474242
0.003474284
0.00347433
0.003474378
0.003474427
0.003733816
0.003474107
0.003474111
0.003474143
0.003474181
0.00347422
0.003474262
0.003474307
0.003474354
0.003474402
0.003475128
0.003474079
0.003474087
0.003474119
0.003474157
0.003474197
0.003474239
0.003474284
0.003474329
0.003474375
0.003700262
0.003726238
0.003725677
0.003725511
0.003725484
0.00372548
0.003725476
0.003725473
0.003700253
0.003473202
0.003473305
0.003473301
0.0034733
0.0034733
0.0034733
0.0034733
0.0034733
0.003726187
0.003473307
0.003473201
0.003473201
0.003473201
0.003473201
0.003473201
0.003473201
0.003473201
0.003725813
0.003473303
0.003473201
0.003473201
0.003473201
0.003473201
0.003473201
0.003473201
0.003473201
0.00372629
0.003473301
0.003473309
0.003473301
0.0034733
0.003473301
0.003473301
0.003473301
0.003473301
0.003698754
0.00347342
0.003732324
0.003730843
0.003730303
0.003730161
0.003730129
0.003730126
0.003730128
0.003694413
0.003475332
0.003474283
0.003474257
0.003474282
0.003474301
0.003474328
0.003474358
0.003474395
0.003747793
0.003474239
0.003474086
0.00347412
0.003474143
0.003474172
0.003474201
0.003474237
0.00347428
0.003747231
0.003474243
0.003474116
0.003474132
0.003474158
0.003474184
0.003474217
0.003474255
0.0034743
0.003474353
0.003747415
0.003474228
0.003474129
0.003474145
0.003474169
0.0034742
0.003474235
0.003474276
0.003474324
0.00347438
0.003747015
0.003474237
0.003474134
0.003474155
0.003474179
0.003474211
0.003474248
0.003474291
0.003474341
0.003474398
0.003746751
0.003474229
0.003474134
0.003474157
0.003474184
0.003474217
0.003474256
0.0034743
0.003474351
0.00347441
0.003746338
0.003474224
0.003474132
0.003474158
0.003474187
0.003474222
0.003474261
0.003474307
0.003474359
0.003474418
0.003745916
0.003474216
0.003474126
0.003474154
0.003474185
0.003474221
0.003474262
0.003474308
0.00347436
0.003474419
0.00374543
0.003474206
0.003474119
0.003474148
0.003474181
0.003474218
0.00347426
0.003474306
0.003474358
0.003474416
0.00374491
0.003474194
0.003474109
0.003474139
0.003474173
0.003474211
0.003474253
0.0034743
0.003474352
0.003474409
0.003744348
0.003474181
0.003474097
0.003474129
0.003474163
0.003474202
0.003474244
0.003474291
0.003474342
0.003474398
0.003743754
0.003474165
0.003474083
0.003474115
0.003474151
0.003474189
0.003474231
0.003474278
0.003474328
0.003474383
0.00374313
0.003474147
0.003474067
0.0034741
0.003474135
0.003474174
0.003474216
0.003474262
0.003474311
0.003474365
0.003742479
0.003474128
0.003474048
0.003474082
0.003474118
0.003474157
0.003474198
0.003474244
0.003474292
0.003474344
0.003741805
0.003474106
0.003474028
0.003474062
0.003474098
0.003474137
0.003474178
0.003474223
0.00347427
0.00347432
0.003741112
0.003474083
0.003474006
0.00347404
0.003474076
0.003474115
0.003474156
0.0034742
0.003474246
0.003474294
0.003740404
0.003474058
0.003473982
0.003474016
0.003474052
0.003474091
0.003474132
0.003474175
0.00347422
0.003474267
0.003700249
0.003726219
0.003725633
0.003725444
0.003725417
0.003725414
0.003725409
0.003725405
0.003700228
0.003473202
0.003473304
0.0034733
0.003473298
0.003473298
0.003473297
0.003473297
0.003473298
0.003726132
0.003473306
0.003473201
0.003473201
0.003473201
0.003473201
0.003473201
0.003473201
0.003473201
0.003725752
0.003473302
0.003473201
0.003473201
0.003473201
0.003473201
0.003473201
0.003473201
0.003473201
0.003726234
0.0034733
0.003473301
0.003473294
0.003473292
0.003473292
0.003473292
0.003473292
0.003473292
0.003698594
0.003473418
0.003730846
0.003728862
0.003727967
0.003727719
0.003727662
0.003727654
0.003727657
0.003693278
0.003475302
0.003474242
0.003474214
0.003474255
0.003474263
0.003474296
0.003474317
0.00347435
0.003747892
0.003474239
0.003474082
0.003474108
0.003474125
0.003474153
0.003474183
0.003474218
0.003474261
0.003747478
0.003474232
0.003474104
0.003474116
0.003474142
0.003474168
0.003474202
0.003474239
0.003474283
0.003747733
0.00347422
0.003474121
0.003474135
0.003474155
0.003474186
0.00347422
0.003474261
0.003474308
0.003474363
0.003747349
0.003474228
0.00347413
0.00347415
0.003474173
0.003474204
0.003474241
0.003474284
0.003474334
0.003474391
0.003747084
0.003474221
0.003474132
0.003474155
0.003474181
0.003474213
0.003474252
0.003474296
0.003474347
0.003474406
0.003746651
0.003474217
0.003474131
0.003474157
0.003474186
0.00347422
0.00347426
0.003474305
0.003474357
0.003474416
0.003746213
0.003474208
0.003474125
0.003474153
0.003474184
0.00347422
0.003474261
0.003474307
0.003474359
0.003474418
0.003745703
0.003474199
0.003474119
0.003474148
0.003474181
0.003474218
0.003474259
0.003474306
0.003474358
0.003474416
0.00374516
0.003474187
0.003474109
0.003474139
0.003474173
0.003474211
0.003474253
0.0034743
0.003474352
0.003474409
0.003744573
0.003474174
0.003474097
0.003474128
0.003474163
0.003474201
0.003474244
0.003474291
0.003474342
0.003474398
0.003743952
0.003474158
0.003474082
0.003474115
0.00347415
0.003474189
0.003474231
0.003474278
0.003474328
0.003474383
0.003743298
0.003474141
0.003474066
0.003474099
0.003474135
0.003474174
0.003474216
0.003474262
0.003474311
0.003474365
0.003742617
0.003474122
0.003474048
0.003474081
0.003474118
0.003474156
0.003474198
0.003474244
0.003474292
0.003474343
0.003741911
0.0034741
0.003474027
0.003474061
0.003474098
0.003474137
0.003474178
0.003474223
0.00347427
0.00347432
0.003741186
0.003474077
0.003474005
0.003474039
0.003474076
0.003474114
0.003474156
0.0034742
0.003474246
0.003474294
0.003740443
0.003474053
0.003473981
0.003474015
0.003474052
0.003474091
0.003474132
0.003474175
0.00347422
0.003474267
0.003700251
0.003726236
0.003725659
0.003725476
0.003725452
0.00372545
0.003725445
0.00372544
0.003700223
0.003473202
0.003473303
0.003473299
0.003473297
0.003473297
0.003473296
0.003473297
0.003473297
0.003726127
0.003473306
0.003473201
0.003473201
0.003473201
0.003473201
0.003473201
0.003473201
0.003473201
0.003725747
0.003473302
0.003473201
0.003473201
0.003473201
0.003473201
0.003473201
0.003473201
0.003473201
0.003726227
0.0034733
0.0034733
0.003473292
0.00347329
0.00347329
0.003473291
0.003473291
0.003473291
0.003698578
0.003473416
0.003730337
0.003728022
0.003726947
0.003726639
0.003726569
0.003726559
0.003726562
0.003693031
0.003475323
0.003474243
0.003474228
0.00347427
0.003474278
0.003474312
0.003474332
0.003474366
0.003747896
0.003474238
0.003474079
0.003474104
0.003474126
0.003474155
0.003474184
0.003474219
0.003474261
0.003747402
0.003474236
0.003474097
0.00347411
0.003474133
0.003474158
0.003474191
0.003474228
0.003474272
0.003747733
0.003474217
0.003474115
0.003474125
0.003474144
0.003474174
0.003474208
0.003474248
0.003474295
0.003747324
0.003474227
0.003474126
0.003474143
0.003474163
0.003474192
0.003474229
0.003474271
0.00347432
0.003474377
0.003747076
0.003474219
0.003474129
0.003474151
0.003474176
0.003474208
0.003474246
0.00347429
0.003474341
0.003474399
0.003746638
0.003474215
0.003474129
0.003474154
0.003474183
0.003474217
0.003474256
0.003474302
0.003474354
0.003474413
0.0037462
0.003474207
0.003474124
0.003474152
0.003474183
0.003474219
0.003474259
0.003474306
0.003474358
0.003474417
0.003745685
0.003474198
0.003474117
0.003474147
0.00347418
0.003474217
0.003474258
0.003474305
0.003474357
0.003474415
0.003745138
0.003474186
0.003474107
0.003474138
0.003474172
0.00347421
0.003474252
0.003474299
0.003474351
0.003474408
0.003744543
0.003474173
0.003474095
0.003474127
0.003474162
0.003474201
0.003474243
0.00347429
0.003474341
0.003474397
0.003743915
0.003474157
0.003474081
0.003474114
0.00347415
0.003474189
0.003474231
0.003474278
0.003474328
0.003474383
0.003743254
0.00347414
0.003474065
0.003474098
0.003474134
0.003474174
0.003474216
0.003474262
0.003474311
0.003474364
0.003742565
0.00347412
0.003474046
0.00347408
0.003474117
0.003474156
0.003474198
0.003474243
0.003474292
0.003474343
0.003741851
0.003474099
0.003474026
0.00347406
0.003474097
0.003474136
0.003474178
0.003474222
0.00347427
0.00347432
0.003741117
0.003474076
0.003474004
0.003474038
0.003474075
0.003474114
0.003474156
0.003474199
0.003474246
0.003474294
0.003740366
0.003474051
0.003473979
0.003474014
0.003474051
0.00347409
0.003474131
0.003474175
0.00347422
0.003474267
0.003700254
0.00372626
0.003725701
0.003725527
0.003725506
0.003725505
0.003725499
0.003725492
0.003700224
0.003473202
0.003473303
0.003473299
0.003473297
0.003473297
0.003473296
0.003473297
0.003473297
0.003726146
0.003473306
0.003473201
0.003473201
0.003473201
0.003473201
0.003473201
0.003473201
0.003473201
0.003725774
0.003473302
0.003473201
0.003473201
0.003473201
0.003473201
0.003473201
0.003473201
0.003473201
0.003726246
0.0034733
0.0034733
0.003473292
0.00347329
0.003473291
0.003473291
0.003473291
0.003473291
0.003698582
0.003473416
0.003730335
0.003728019
0.003726944
0.003726637
0.003726566
0.003726557
0.00372656
0.00369301
0.003475321
0.003474243
0.003474228
0.00347427
0.003474278
0.003474312
0.003474333
0.003474366
0.003747895
0.003474238
0.00347408
0.003474105
0.003474127
0.003474155
0.003474184
0.003474219
0.003474261
0.003747402
0.003474236
0.003474097
0.00347411
0.003474133
0.003474158
0.003474191
0.003474227
0.003474272
0.003747733
0.003474217
0.003474115
0.003474125
0.003474144
0.003474174
0.003474208
0.003474248
0.003474295
0.003747326
0.003474227
0.003474126
0.003474143
0.003474163
0.003474192
0.003474228
0.003474271
0.00347432
0.00374708
0.003474219
0.003474129
0.003474151
0.003474176
0.003474208
0.003474245
0.00347429
0.003474341
0.003746638
0.003474216
0.003474129
0.003474154
0.003474183
0.003474217
0.003474256
0.003474302
0.003474353
0.003474412
0.0037462
0.003474207
0.003474124
0.003474152
0.003474183
0.003474219
0.003474259
0.003474306
0.003474358
0.003474417
0.003745686
0.003474198
0.003474117
0.003474147
0.00347418
0.003474217
0.003474258
0.003474305
0.003474357
0.003474415
0.003745138
0.003474186
0.003474107
0.003474138
0.003474172
0.003474211
0.003474253
0.0034743
0.003474351
0.003474409
0.003744544
0.003474173
0.003474096
0.003474127
0.003474163
0.003474201
0.003474244
0.00347429
0.003474342
0.003474398
0.003743915
0.003474157
0.003474081
0.003474114
0.00347415
0.003474189
0.003474231
0.003474278
0.003474328
0.003474383
0.003743254
0.003474139
0.003474065
0.003474098
0.003474135
0.003474174
0.003474216
0.003474262
0.003474311
0.003474364
0.003742563
0.00347412
0.003474046
0.00347408
0.003474117
0.003474156
0.003474198
0.003474243
0.003474292
0.003474343
0.003741849
0.003474099
0.003474026
0.00347406
0.003474097
0.003474136
0.003474178
0.003474223
0.00347427
0.00347432
0.003741116
0.003474076
0.003474003
0.003474038
0.003474075
0.003474114
0.003474156
0.0034742
0.003474246
0.003474294
0.003740369
0.003474051
0.003473979
0.003474014
0.003474052
0.003474091
0.003474132
0.003474175
0.00347422
0.003474267
0.003700277
0.003726359
0.00372586
0.003725719
0.003725702
0.0037257
0.003725695
0.003725685
0.003700239
0.003473202
0.003473304
0.0034733
0.003473299
0.003473298
0.003473298
0.003473298
0.003473298
0.003726255
0.003473306
0.003473201
0.003473201
0.003473201
0.003473201
0.003473201
0.003473201
0.003473201
0.003725912
0.003473302
0.003473201
0.003473201
0.003473201
0.003473201
0.003473201
0.003473201
0.003473201
0.003726356
0.003473301
0.003473301
0.003473294
0.003473292
0.003473292
0.003473293
0.003473293
0.003473293
0.003698633
0.003473418
0.003730841
0.003728857
0.003727962
0.003727712
0.003727656
0.003727649
0.003727652
0.003693092
0.003475318
0.003474241
0.003474215
0.003474257
0.003474266
0.003474299
0.003474317
0.003474349
0.003747896
0.003474239
0.003474082
0.003474108
0.003474126
0.003474154
0.003474184
0.00347422
0.003474263
0.003747482
0.003474232
0.003474104
0.003474116
0.003474142
0.003474168
0.003474201
0.003474238
0.003474283
0.003747737
0.00347422
0.003474121
0.003474135
0.003474156
0.003474186
0.00347422
0.003474261
0.003474308
0.003747347
0.003474228
0.003474131
0.00347415
0.003474173
0.003474204
0.00347424
0.003474283
0.003474333
0.003747074
0.003474221
0.003474132
0.003474155
0.003474181
0.003474213
0.003474251
0.003474296
0.003474347
0.003746648
0.003474217
0.003474131
0.003474157
0.003474186
0.00347422
0.003474259
0.003474305
0.003474357
0.003746212
0.003474208
0.003474126
0.003474154
0.003474185
0.00347422
0.003474261
0.003474307
0.003474359
0.003474418
0.003745705
0.003474199
0.003474119
0.003474148
0.003474181
0.003474218
0.003474259
0.003474306
0.003474358
0.003474416
0.003745168
0.003474188
0.003474109
0.003474139
0.003474173
0.003474211
0.003474253
0.0034743
0.003474352
0.003474409
0.003744572
0.003474174
0.003474097
0.003474128
0.003474163
0.003474202
0.003474244
0.003474291
0.003474342
0.003474398
0.003743953
0.003474158
0.003474083
0.003474115
0.00347415
0.003474189
0.003474231
0.003474278
0.003474328
0.003474383
0.003743299
0.003474141
0.003474066
0.003474099
0.003474135
0.003474174
0.003474216
0.003474262
0.003474311
0.003474365
0.003742616
0.003474121
0.003474048
0.003474081
0.003474117
0.003474156
0.003474198
0.003474243
0.003474292
0.003474343
0.003741912
0.0034741
0.003474027
0.003474061
0.003474097
0.003474136
0.003474178
0.003474223
0.00347427
0.00347432
0.003741185
0.003474078
0.003474005
0.003474039
0.003474075
0.003474115
0.003474156
0.0034742
0.003474246
0.003474295
0.003740434
0.003474053
0.003473981
0.003474015
0.003474051
0.003474091
0.003474132
0.003474176
0.00347422
0.003474267
0.003700474
0.003726613
0.003726377
0.003726289
0.003726272
0.003726272
0.003726267
0.003726256
0.003700439
0.003473202
0.003473307
0.003473304
0.003473303
0.003473302
0.003473302
0.003473302
0.003473303
0.003726535
0.003473308
0.003473201
0.003473201
0.003473201
0.003473201
0.003473201
0.003473201
0.003473201
0.00372639
0.003473305
0.003473201
0.003473201
0.003473201
0.003473201
0.003473201
0.003473201
0.003473201
0.003726627
0.003473302
0.003473309
0.003473301
0.0034733
0.003473301
0.003473301
0.003473301
0.003473301
0.00369909
0.00347342
0.003732322
0.003730842
0.0037303
0.003730157
0.003730127
0.003730126
0.00373013
0.00369363
0.003475365
0.003474278
0.003474252
0.003474277
0.003474295
0.003474322
0.003474356
0.003474397
0.003747792
0.003474241
0.003474088
0.003474121
0.003474143
0.00347417
0.003474198
0.003474233
0.003474278
0.003747236
0.003474243
0.003474115
0.003474131
0.003474158
0.003474184
0.003474218
0.003474255
0.003474301
0.003747412
0.003474229
0.003474129
0.003474146
0.00347417
0.0034742
0.003474235
0.003474277
0.003474325
0.003747046
0.003474236
0.003474134
0.003474155
0.003474179
0.003474211
0.003474248
0.00347429
0.00347434
0.003746777
0.003474229
0.003474134
0.003474157
0.003474185
0.003474218
0.003474256
0.003474301
0.003474351
0.003746318
0.003474225
0.003474132
0.003474158
0.003474187
0.003474222
0.003474261
0.003474307
0.003474358
0.003745918
0.003474216
0.003474126
0.003474154
0.003474185
0.003474221
0.003474262
0.003474308
0.00347436
0.003745435
0.003474207
0.003474119
0.003474149
0.003474181
0.003474218
0.00347426
0.003474306
0.003474358
0.003474416
0.003744908
0.003474195
0.003474109
0.00347414
0.003474174
0.003474212
0.003474254
0.0034743
0.003474352
0.003474409
0.003744353
0.003474181
0.003474097
0.003474129
0.003474164
0.003474202
0.003474244
0.003474291
0.003474342
0.003474398
0.00374376
0.003474165
0.003474083
0.003474115
0.003474151
0.003474189
0.003474232
0.003474278
0.003474328
0.003474383
0.003743138
0.003474147
0.003474067
0.0034741
0.003474136
0.003474175
0.003474217
0.003474262
0.003474311
0.003474365
0.003742475
0.003474128
0.003474048
0.003474081
0.003474117
0.003474156
0.003474198
0.003474244
0.003474292
0.003474343
0.003741794
0.003474106
0.003474028
0.003474062
0.003474099
0.003474138
0.00347418
0.003474224
0.00347427
0.00347432
0.003741129
0.003474083
0.003474005
0.003474039
0.003474074
0.003474115
0.003474156
0.0034742
0.003474247
0.003474295
0.003740447
0.003474058
0.003473981
0.003474016
0.003474056
0.003474096
0.003474137
0.003474177
0.003474221
0.003474267
0.003700697
0.003699775
0.003698466
0.003698422
0.003698208
0.00369815
0.003698147
0.003698177
0.003698042
0.003700768
0.003473308
0.003473305
0.003473304
0.003473304
0.003473304
0.003473304
0.003473304
0.003473304
0.003699757
0.003473306
0.003473301
0.0034733
0.0034733
0.0034733
0.0034733
0.0034733
0.0034733
0.00369826
0.003473305
0.0034733
0.003473299
0.003473298
0.003473298
0.003473298
0.003473298
0.003473298
0.00369855
0.003473303
0.003473298
0.003473297
0.003473297
0.003473297
0.003473297
0.003473297
0.003473297
0.003699437
0.003473284
0.003473418
0.003473417
0.003473415
0.003473414
0.003473414
0.003473414
0.003473415
0.003696999
0.003654823
0.00365168
0.003650458
0.003650311
0.00365037
0.003650387
0.003650441
0.003650465
0.003475305
0.003475505
0.003475653
0.003475612
0.003475633
0.003475665
0.003475726
0.003475778
0.003475825
0.003746027
0.003474294
0.0034743
0.003474322
0.003474343
0.00347437
0.003474402
0.003474441
0.003474478
0.003747418
0.003474241
0.003474247
0.003474262
0.003474293
0.003474321
0.003474355
0.003474396
0.003474446
0.003746877
0.003474248
0.003474248
0.003474265
0.00347429
0.00347432
0.003474355
0.003474397
0.003474445
0.003745976
0.003474262
0.003474245
0.003474268
0.003474296
0.003474329
0.003474366
0.00347441
0.00347446
0.003745653
0.003474246
0.003474244
0.003474266
0.003474296
0.003474329
0.003474368
0.003474412
0.003474463
0.003744459
0.003474248
0.003474242
0.003474265
0.003474297
0.003474332
0.003474372
0.003474418
0.00347447
0.003743738
0.003474245
0.003474231
0.003474261
0.003474292
0.003474329
0.003474371
0.003474418
0.003474471
0.003743027
0.003474243
0.003474224
0.003474254
0.003474288
0.003474325
0.003474367
0.003474415
0.003474467
0.00374152
0.003474226
0.003474218
0.003474244
0.00347428
0.003474318
0.00347436
0.003474407
0.003474459
0.003474516
0.003740566
0.00347422
0.003474204
0.003474234
0.003474269
0.003474308
0.00347435
0.003474397
0.003474448
0.003474504
0.00373951
0.003474204
0.003474187
0.00347422
0.003474256
0.003474295
0.003474337
0.003474384
0.003474434
0.003474489
0.003737992
0.00347417
0.003474174
0.003474204
0.003474241
0.00347428
0.003474322
0.003474368
0.003474417
0.00347447
0.003737312
0.003474153
0.003474153
0.003474186
0.003474222
0.003474262
0.003474305
0.003474351
0.003474399
0.00347445
0.003735116
0.003474116
0.003474136
0.003474165
0.003474203
0.003474243
0.003474285
0.003474329
0.003474376
0.003474426
0.003733833
0.003474113
0.003474106
0.003474143
0.003474189
0.003474236
0.003474278
0.003474316
0.003474357
0.003474403
0.003733731
0.00347409
0.003474084
0.003474121
0.003474162
0.003474202
0.003474243
0.003474287
0.003474326
0.003474373
0.003700166
0.003700007
0.003645787
0.003649283
0.003640999
0.003639796
0.003642025
0.003641006
0.003639307
0.003640872
0.003727351
0.003726896
0.00372677
0.003726759
0.003726749
0.003726735
0.003726728
0.003726738
0.003638211
0.00372696
0.003726089
0.003725835
0.003725781
0.003725768
0.003725763
0.003725762
0.003725764
0.003638424
0.003726932
0.003726085
0.003725832
0.003725776
0.003725764
0.003725763
0.003725765
0.003725767
0.00370017
0.003727218
0.003726738
0.003726578
0.00372653
0.00372652
0.003726527
0.003726534
0.003726544
0.003700129
0.0034736
0.003473593
0.003473596
0.003473597
0.003473597
0.003473598
0.003473599
0.003473599
0.0034736
0.00370315
0.003701509
0.003701483
0.003700806
0.003700468
0.003701082
0.003701033
0.003701448
0.003701515
0.003478059
0.003478014
0.003478239
0.003477626
0.003478058
0.003478512
0.003478762
0.003479775
0.003481274
0.003765695
0.003747379
0.003747544
0.003747638
0.003747914
0.003748206
0.003748572
0.003749081
0.003749689
0.003769523
0.003747539
0.00374786
0.003748031
0.003748219
0.003748528
0.003748922
0.00374933
0.003749785
0.003770216
0.003747463
0.00374791
0.003748107
0.003748348
0.003748671
0.003749064
0.003749547
0.00375011
0.003769379
0.003747162
0.003747682
0.003747865
0.003748097
0.003748409
0.003748793
0.003749243
0.003749764
0.003762194
0.003746934
0.003747413
0.003747581
0.003747825
0.003748137
0.003748515
0.003748968
0.003749494
0.00375986
0.003746606
0.003746995
0.003747187
0.003747416
0.003747723
0.003748091
0.003748529
0.003749037
0.003762673
0.003746186
0.003746584
0.003746757
0.003746984
0.003747284
0.003747644
0.003748072
0.003748569
0.003756035
0.003745757
0.003746104
0.00374626
0.003746481
0.003746773
0.003747125
0.003747542
0.003748025
0.003757136
0.003745281
0.003745575
0.003745728
0.003745939
0.003746226
0.003746569
0.003746977
0.003747447
0.003754421
0.003744733
0.003745015
0.003745149
0.003745353
0.003745633
0.003745968
0.003746367
0.003746826
0.003747346
0.003749517
0.003744196
0.003744408
0.003744532
0.003744729
0.003745003
0.003745332
0.003745724
0.003746172
0.00374668
0.003747812
0.003743604
0.003743776
0.003743883
0.003744077
0.003744345
0.003744669
0.003745053
0.003745492
0.003745989
0.003745758
0.003742974
0.003743109
0.003743197
0.00374338
0.003743645
0.003743965
0.003744349
0.003744782
0.003745274
0.003742237
0.003742332
0.003742416
0.003742499
0.003742691
0.003742954
0.003743273
0.003743646
0.003744067
0.00374455
0.003735903
0.003741661
0.003741704
0.003741744
0.003741889
0.003742155
0.003742472
0.003742881
0.003743307
0.003743801
0.00373239
0.003740928
0.003741007
0.003741009
0.003741287
0.00374156
0.003741887
0.003742213
0.00374259
0.003743073
0.003625332
0.003625308
0.003700329
0.003636948
0.003636907
0.003473409
0.003700349
0.003698307
0.003697339
0.003698741
0.003473811
0.00369621
0.003473784
0.003696131
0.00369724
0.00369561
0.003696362
0.003473947
0.003694813
0.003473939
0.003695482
0.00369721
0.003695677
0.003694468
0.003473935
0.003694506
0.003473935
0.003696167
0.003697561
0.003697973
0.003694924
0.003473946
0.003696755
0.003473961
0.003698338
0.003699925
0.003701758
0.003696989
0.003473607
0.003629182
0.003473626
0.003643244
0.003806891
0.003598969
0.003703772
0.003487173
0.003642774
0.003805611
0.003807127
0.003702314
0.003701362
0.003491991
0.003488609
0.003642743
0.00380824
0.00380958
0.003700764
0.003700499
0.003486217
0.003486545
0.003642745
0.003810677
0.003811743
0.003700384
0.003700339
0.003486301
0.003487181
0.003642704
0.003813062
0.00381442
0.003700321
0.003700314
0.003486334
0.003487694
0.003642708
0.003816053
0.003817723
0.003700311
0.003700307
0.003486489
0.003488134
0.003642703
0.003819733
0.00382174
0.003700308
0.003700309
0.003486669
0.003488479
0.003642482
0.003824134
0.003826471
0.003700313
0.003700309
0.003486906
0.003488839
0.003642699
0.0038293
0.003831972
0.003700316
0.003700332
0.003487182
0.003489218
0.003835277
0.003700336
0.003487515
0.003763929
0.003751284
0.003482633
0.00377414
0.003476324
0.003747066
0.003748763
0.003765857
0.00347914
0.003778432
0.003476292
0.00374684
0.003746783
0.003769443
0.003478652
0.003780772
0.003476469
0.003746295
0.003745805
0.00377014
0.003478916
0.00377935
0.00347643
0.003745506
0.003745089
0.003768931
0.003478765
0.003777735
0.003476424
0.003744795
0.003744298
0.003767408
0.003478842
0.00377557
0.003476374
0.003744061
0.003743466
0.003765383
0.003478807
0.003773148
0.003476334
0.003743199
0.003742549
0.003763126
0.003478826
0.0037704
0.003476278
0.003742276
0.003741556
0.003760577
0.003478807
0.003767366
0.003476221
0.003741265
0.003740485
0.003757788
0.003478786
0.003764066
0.003476157
0.003740181
0.003739346
0.003754764
0.003478749
0.003760518
0.003476088
0.00373903
0.003738148
0.003751533
0.003478701
0.00375674
0.003476014
0.003737816
0.003736895
0.003748099
0.003478639
0.003752754
0.003475936
0.00373655
0.003735589
0.003744485
0.003478567
0.00374858
0.003475851
0.003735237
0.003734236
0.003740703
0.003478484
0.003744233
0.003475764
0.003733878
0.003732843
0.003736765
0.00347839
0.003739742
0.003475674
0.003732486
0.003731419
0.003732696
0.003478283
0.003735147
0.003475583
0.00363821
0.003638187
0.003473219
0.003638858
0.003638858
0.003473219
0.003703458
0.003492244
0.003702821
0.003488943
0.003638843
0.003638847
0.003473219
0.003638833
0.003638862
0.003473219
0.003702336
0.003485751
0.003702109
0.003485778
0.003638838
0.003638851
0.003473219
0.003638832
0.00363886
0.003473219
0.003702008
0.003486048
0.003701965
0.003485754
0.003638847
0.003638847
0.003473219
0.003638828
0.003638865
0.003473219
0.003701948
0.003485765
0.003701942
0.003485743
0.003638832
0.003638861
0.003473219
0.00363884
0.003638859
0.003473219
0.003701942
0.003485744
0.003701948
0.00348576
0.003638863
0.003638839
0.003473219
0.003638911
0.00363886
0.003473219
0.003701965