/*--------------------------------*- C++ -*----------------------------------*\
  =========                 |
  \\      /  F ield         | OpenFOAM: The Open Source CFD Toolbox
   \\    /   O peration     | Website:  https://openfoam.org
    \\  /    A nd           | Version:  7
     \\/     M anipulation  |
\*---------------------------------------------------------------------------*/
FoamFile
{
    version     2.0;
    format      ascii;
    class       surfaceScalarField;
    location    "0.08";
    object      phi;
}
// * * * * * * * * * * * * * * * * * * * * * * * * * * * * * * * * * * * * * //

dimensions      [0 3 -1 0 0 0 0];

internalField   nonuniform List<scalar> 
234023
(
3.511055e-10
-3.377789e-09
1.245857e-09
3.58993e-10
5.67608e-10
3.811374e-10
6.307927e-10
4.490211e-09
-6.367489e-09
1.655439e-09
4.401914e-10
8.675177e-09
-1.086242e-08
1.960931e-09
4.108034e-10
1.416554e-08
-1.720653e-08
2.924311e-09
3.528803e-10
2.170014e-08
-2.67035e-08
4.632124e-09
6.666051e-10
3.332832e-08
-4.080155e-08
7.106335e-09
8.98275e-10
5.111088e-08
-6.350766e-08
1.151363e-08
1.514177e-09
7.897462e-08
-9.85201e-08
1.792096e-08
2.220314e-09
1.227797e-07
2.706734e-08
2.223823e-09
-1.517164e-07
-4.794473e-10
-8.504087e-10
3.084464e-09
1.898013e-10
-5.682892e-10
-5.229099e-10
-7.508624e-10
-1.895619e-08
1.998997e-08
2.350374e-09
1.732182e-09
2.40387e-09
2.585411e-09
2.451597e-09
-2.269964e-09
-3.362892e-09
-2.925553e-09
-3.619516e-09
-3.29006e-08
2.707301e-08
3.293479e-09
-2.647332e-09
-4.818033e-09
-3.862126e-09
-4.506581e-09
-5.337771e-08
3.995402e-08
4.003207e-09
-3.616241e-09
-7.305565e-09
-5.416017e-09
-6.490563e-09
-8.419555e-08
6.045077e-08
4.898472e-09
-5.18294e-09
-1.056223e-08
-8.199395e-09
-9.866949e-09
-1.312016e-07
9.42618e-08
6.401483e-09
-8.045754e-09
-1.650054e-08
-1.27153e-08
-1.543674e-08
-2.033394e-07
1.471817e-07
8.7671e-09
-1.232024e-08
-2.580655e-08
-1.992916e-08
-2.440177e-08
-3.147561e-07
2.317308e-07
1.182103e-08
-1.975342e-08
-4.035585e-08
-3.156252e-08
-3.888354e-08
3.63805e-07
1.610443e-08
-3.080367e-08
-6.269596e-08
-4.978627e-08
-5.999824e-08
-4.900514e-07
-3.563589e-09
-5.187391e-10
3.988074e-09
1.438318e-10
-1.184617e-08
2.388579e-08
2.207219e-09
6.236112e-10
2.039367e-09
1.66392e-09
1.750084e-09
-1.989937e-08
3.242072e-08
3.181142e-09
-3.179562e-08
4.834965e-08
4.024974e-09
-4.972244e-08
7.356215e-08
5.439515e-09
-7.711637e-08
1.153767e-07
7.045199e-09
-1.187512e-07
1.795579e-07
1.028572e-08
-1.827956e-07
2.822906e-07
1.451063e-08
4.440568e-07
2.083086e-08
-2.829752e-07
-4.450331e-09
2.648448e-10
3.988194e-09
2.161109e-10
8.497606e-11
2.228267e-08
2.628467e-09
-9.606316e-10
5.012432e-10
-2.204398e-10
1.202438e-10
-2.181792e-10
3.090301e-08
2.235144e-09
5.019873e-10
4.570816e-08
2.356643e-09
1.440217e-09
7.006404e-08
3.164201e-09
3.799832e-09
1.097839e-07
4.078032e-09
1.018629e-08
1.723489e-07
1.728065e-09
2.215927e-08
2.712594e-07
9.56519e-11
4.28914e-07
-4.147797e-09
4.227502e-08
-3.763366e-09
4.29348e-10
3.194145e-09
2.365024e-10
8.461741e-09
3.567478e-09
1.729317e-09
-1.619748e-09
-5.095907e-10
-1.108777e-09
-8.693844e-10
3.991013e-09
4.487139e-09
4.593761e-09
1.469486e-08
4.868636e-09
1.770296e-09
6.048421e-09
6.206929e-09
6.153392e-09
2.481265e-08
6.870088e-09
1.672713e-09
9.151805e-09
9.16083e-09
9.095003e-09
4.056616e-08
1.034058e-08
1.944716e-09
1.417252e-08
1.434047e-08
1.42307e-08
6.623852e-08
1.61279e-08
1.980586e-09
2.211349e-08
2.240269e-08
2.229134e-08
1.069986e-07
2.476248e-08
1.83261e-09
3.526262e-08
3.511214e-08
3.56831e-08
1.720922e-07
3.900464e-08
4.741095e-10
5.581526e-08
5.5032e-08
5.686518e-08
6.209585e-08
-2.334822e-09
8.838962e-08
8.709657e-08
9.05185e-08
2.7619e-07
-2.939957e-09
5.757265e-10
2.039128e-09
4.461745e-10
-1.700509e-09
2.239721e-09
2.317952e-09
8.960368e-10
-3.346249e-09
4.363231e-09
2.942136e-09
1.221888e-09
-6.370687e-09
7.510295e-09
4.348962e-09
1.47116e-09
-1.031576e-08
1.23066e-08
6.664032e-09
1.992693e-09
-1.74574e-08
2.083526e-08
1.046788e-08
2.702954e-09
-2.859266e-08
3.354725e-08
1.617329e-08
4.175041e-09
-4.645294e-08
5.417966e-08
2.577415e-08
6.181507e-09
-7.482993e-08
8.75131e-08
4.148672e-08
8.617629e-09
-1.20448e-07
6.657482e-08
1.334224e-08
1.399797e-07
-9.89008e-08
-1.063002e-10
5.9929e-13
-5.107273e-11
1.929915e-10
4.985306e-11
-5.695967e-10
6.386965e-12
5.334483e-10
-3.950006e-12
1.024219e-10
-1.06559e-09
-2.20969e-10
1.105562e-09
1.854081e-10
1.773716e-10
-2.245796e-09
8.631753e-12
2.00715e-09
1.368408e-10
1.920374e-10
-3.449049e-09
-3.939787e-10
3.214092e-09
4.129185e-10
4.735697e-10
-6.029487e-09
3.42429e-10
5.41475e-09
6.978589e-11
4.115654e-10
-9.610532e-09
2.930637e-10
8.362268e-09
3.143379e-10
8.172421e-10
-1.477006e-08
3.978279e-10
1.328878e-08
4.972637e-10
9.41481e-10
-2.399451e-08
3.388977e-10
2.182688e-08
8.744232e-10
1.495847e-09
-3.915403e-08
-1.067632e-10
3.460731e-08
1.476862e-09
3.494963e-09
0.0003557089
3.630881e-05
-2.364988e-05
-0.001524593
-8.984541e-05
0.0003508567
0.0004523484
0.0004428655
0.0003606469
1.739794e-05
-1.352485e-05
-9.823667e-05
-0.001535619
0.0003588239
0.0004592716
0.0004512396
0.0003660177
1.174769e-05
-1.123772e-05
-9.636463e-05
-0.001557394
0.0003636919
0.0004658268
0.0004577126
0.0003705319
1.289323e-05
-1.309438e-05
-9.628278e-05
-0.001576846
0.0003679027
0.0004715723
0.0004633228
0.0003758664
1.580396e-05
-1.566322e-05
-9.71761e-05
-0.0016003
0.0003729711
0.0004784647
0.0004700336
0.0003822825
1.909431e-05
-1.848278e-05
-9.855006e-05
-0.001628501
0.0003791107
0.0004868673
0.000478179
0.0003899519
2.265952e-05
-2.157528e-05
-0.00010029
-0.001661976
0.0003864281
0.0004968857
0.0004879157
0.0003989781
2.657172e-05
-2.510321e-05
-0.0001023039
-0.001701198
0.0003949969
0.0005086734
0.0004993851
0.0004094938
3.094805e-05
-2.921891e-05
-0.0001043054
-0.001747069
0.0004049383
0.0005224396
0.0005127738
-0.0005539873
-0.0244665
-0.001183226
0.0007216864
-0.0009597206
0.000557787
-0.000206055
0.005925989
0.006072809
0.007073744
0.00701747
-0.0006267648
-0.02449496
-0.001893232
0.006182761
0.006140186
0.007091652
0.007046366
-0.0006458948
-0.02455936
-0.00211475
0.006251136
0.006206415
0.007127845
0.007107843
-0.0007236134
-0.02477217
-0.002143347
0.006325265
0.006278911
0.007196818
0.007192236
-0.000846052
-0.02508464
-0.002181603
0.006422522
0.00636787
0.007300238
0.007298049
-0.0009950234
-0.02550742
-0.00220859
0.006537511
0.006472221
0.007427935
0.007427317
-0.001164855
-0.0260157
-0.00224768
0.006673718
0.006596371
0.007581513
0.007581608
-0.00135648
-0.02661803
-0.002293637
0.006833393
0.006742989
0.007762944
0.007763965
-0.02731286
-0.00235104
0.00701886
0.007974124
-0.001572353
0.006913211
0.007973577
-0.0004524259
-0.02402623
-0.0002413155
0.001017573
-0.0009127527
0.0004419029
-0.0002932495
-0.0006441331
-0.02374947
-0.0005537779
-0.0008381508
-0.02376285
-0.0006024916
-0.001034301
-0.0239044
-0.0006716147
-0.001254401
-0.02418598
-0.0006785618
-0.001492606
-0.02457252
-0.0006966973
-0.001752109
-0.02505123
-0.0007049632
-0.002036221
-0.02561522
-0.0007186944
-0.02626616
-0.0007339828
-0.002348934
-0.0006677605
-0.02373016
-7.084749e-05
0.001050037
-0.0008486394
0.0004913824
-0.0002502387
-0.0008654979
-0.02344689
-0.0001048447
-0.00110864
-0.023421
-9.870929e-05
-0.001368397
-0.02353652
-0.0001081225
-0.00165446
-0.02379092
-0.0001089899
-0.001964496
-0.02415244
-0.0001100485
-0.00230206
-0.02460362
-0.0001100497
-0.002670198
-0.025136
-0.000111083
-0.02574949
-0.0001129188
-0.003073951
-0.0006611633
-0.02337184
-3.532885e-05
0.001001965
-0.0008474181
0.0004529541
-0.0002693334
-0.00097439
-0.02308173
-5.19362e-05
-0.001307291
-0.02304474
-4.336078e-05
-0.001649361
-0.02313838
-5.607042e-05
-0.002012334
-0.02337292
-5.50283e-05
-0.002397405
-0.02370873
-5.863743e-05
-0.002811485
-0.02413171
-5.783225e-05
-0.003258799
-0.02463002
-5.866618e-05
-0.0252031
-5.922968e-05
-0.003745959
-0.0007810742
-0.02297526
-2.856902e-05
0.001000356
-0.0008144675
0.0004737203
-0.0002465399
-0.001148505
-0.02268612
-2.817251e-05
-0.001539251
-0.02264918
-4.812534e-06
-0.001942957
-0.02272964
-5.033893e-06
-0.002369035
-0.02294571
-1.130623e-06
-0.002819792
-0.02325688
-1.09644e-06
-0.003302258
-0.02364979
5.505444e-07
-0.003821239
-0.02411212
1.082873e-06
-0.02464158
1.293858e-06
-0.004384048
-0.0008554526
-0.02251959
-3.256519e-05
0.0009894311
-0.000790853
0.000472845
-0.0002390838
-0.001287786
-0.02223146
-2.232745e-05
-0.001740912
-0.02218835
-7.697373e-06
-0.002207226
-0.02225571
-7.619587e-06
-0.002696036
-0.02245258
-4.322515e-06
-0.003209844
-0.02273845
-4.61774e-06
-0.003756389
-0.02310005
-3.191473e-06
-0.004340946
-0.02352434
-3.222683e-06
-0.02400801
-3.488148e-06
-0.00497103
-0.0009570065
-0.02201388
-3.583037e-05
0.0009827924
-0.0007607666
0.0004864775
-0.0002213749
-0.001436343
-0.02172607
-2.605828e-05
-0.001940853
-0.0216786
-5.23896e-06
-0.002460245
-0.02173366
-2.65555e-06
-0.003003601
-0.02191123
2.007562e-06
-0.003573075
-0.02217172
2.744528e-06
-0.004176622
-0.02250109
4.583854e-06
-0.004819214
-0.02288655
4.796241e-06
-0.02332348
4.46006e-06
-0.005508206
-0.001039618
-0.02145845
-3.944935e-05
0.0009721092
-0.0007328244
0.0004928832
-0.0002085321
-0.001567382
-0.02117221
-2.609883e-05
-0.00212107
-0.0211182
-6.712424e-06
-0.002690023
-0.0211608
-3.909797e-06
-0.003283334
-0.02131844
5.256024e-07
-0.003903111
-0.02155327
1.329405e-06
-0.004557033
-0.02185024
3.075461e-06
-0.005250073
-0.02219677
3.259914e-06
-0.02258708
2.67221e-06
-0.005989148
-0.001123353
-0.02085798
-4.299533e-05
0.0009608491
-0.000702793
0.0005011677
-0.0001933427
-0.0016916
-0.02057416
-2.979605e-05
-0.00228846
-0.0205139
-7.443294e-06
-0.002900843
-0.0205441
-4.311763e-06
-0.003538
-0.02068207
7.867281e-07
-0.004201637
-0.02089145
1.817734e-06
-0.004899304
-0.02115635
3.778318e-06
-0.005635461
-0.02146463
4.024073e-06
-0.02180967
3.384529e-06
-0.006416249
-0.001196801
-0.02021714
-4.505829e-05
0.0009467108
-0.0006729886
0.000506998
-0.0001796957
-0.001802569
-0.01993638
-3.201747e-05
-0.002438598
-0.0198697
-8.173019e-06
-0.003089889
-0.01988773
-5.081021e-06
-0.003765854
-0.02000635
2.434609e-07
-0.00446786
-0.02019072
1.271771e-06
-0.005202968
-0.02042452
3.276685e-06
-0.005975351
-0.02069575
3.496268e-06
-0.02099749
2.725218e-06
-0.006790256
-0.001264509
-0.01954003
-4.712114e-05
0.0009308662
-0.0006424179
0.0005119901
-0.0001659208
-0.001902678
-0.01926311
-3.50987e-05
-0.002573176
-0.01919039
-8.813e-06
-0.003258385
-0.01919671
-5.807517e-06
-0.003968053
-0.0192966
-8.799515e-08
-0.004702939
-0.0194568
9.661207e-07
-0.005469823
-0.0196607
3.062488e-06
-0.006271989
-0.01989688
3.296987e-06
-0.02015769
2.467313e-06
-0.007114259
-0.001324056
-0.0188313
-4.826174e-05
0.0009127842
-0.0006117125
0.0005152881
-0.0001527699
-0.001990808
-0.01855865
-3.770865e-05
-0.002691613
-0.01848043
-9.15297e-06
-0.003406423
-0.01847561
-6.291084e-06
-0.004145203
-0.01855757
-2.420778e-07
-0.004908079
-0.0186947
7.764733e-07
-0.005701365
-0.01887033
2.913693e-06
-0.006527855
-0.01907352
3.131404e-06
-0.01929637
2.229391e-06
-0.007391409
-0.001376652
-0.01809491
-4.962391e-05
0.0008931784
-0.0005806334
0.0005172632
-0.0001399224
-0.002067769
-0.01782733
-4.019755e-05
-0.002794741
-0.01774398
-9.478744e-06
-0.003534842
-0.0177287
-6.809005e-06
-0.004298399
-0.01779361
-4.119622e-07
-0.005084805
-0.01790889
5.993176e-07
-0.005899907
-0.01805804
2.812652e-06
-0.006745835
-0.01823064
3.050015e-06
-0.01841876
2.100848e-06
-0.007625543
-0.001421813
-0.01733509
-5.067146e-05
0.0008717398
-0.0005493508
0.0005180315
-0.0001277616
-0.002133558
-0.01707368
-4.190912e-05
-0.002882885
-0.01698546
-9.194041e-06
-0.003644536
-0.01696038
-6.668794e-06
-0.004429092
-0.01700906
1.399654e-08
-0.00523519
-0.01710383
1.029621e-06
-0.006068154
-0.01722831
3.237538e-06
-0.006929251
-0.01737297
3.422044e-06
-0.01752946
2.373741e-06
-0.007820927
-0.001459897
-0.01655645
-5.05388e-05
0.000848337
-0.0005177404
0.0005171673
-0.000115971
-0.002188681
-0.01630088
-4.401292e-05
-0.0029567
-0.01620839
-9.050696e-06
-0.003736314
-0.01617403
-6.73254e-06
-0.004538487
-0.01620725
3.562255e-07
-0.005360849
-0.01628281
1.350385e-06
-0.006208406
-0.01638441
3.650132e-06
-0.007081494
-0.01650377
3.887104e-06
-0.01663219
2.849674e-06
-0.007981609
-0.001490218
-5.135296e-05
0.0008238676
-0.0004862234
0.0005145451
-0.0001048711
-0.01576219
-0.00223295
-4.379919e-05
-0.01551435
-0.003016427
-7.673452e-06
-0.01541724
-0.003811114
-5.261593e-06
-0.01537409
-0.004628128
2.114702e-06
-0.01539235
-0.005464356
3.106761e-06
-0.01544969
-0.006323973
5.253509e-06
-0.01553004
-0.007206431
5.379297e-06
-0.01562669
4.152042e-06
-0.01573033
-0.00811244
4.948861e-10
-7.033352e-10
-3.435159e-09
1.242415e-09
7.940626e-10
7.625474e-10
4.8879e-10
5.860879e-10
-4.10795e-08
1.588025e-08
4.925241e-09
-1.225419e-10
-2.194506e-09
1.318387e-10
-9.365824e-10
5.0195e-09
6.94667e-09
5.357822e-09
6.814529e-09
-6.519948e-08
2.288329e-08
6.76559e-09
2.659384e-10
-3.851685e-09
2.420641e-11
-1.405058e-09
-1.031912e-07
3.54893e-08
8.200846e-09
1.18497e-09
-5.57527e-09
8.361214e-10
-1.581569e-09
-1.610741e-07
5.478721e-08
1.051073e-08
2.038244e-09
-8.10252e-09
1.465775e-09
-2.035038e-09
-2.509119e-07
8.552618e-08
1.390481e-08
3.692816e-09
-1.180936e-08
2.560826e-09
-2.912719e-09
-3.901449e-07
1.338882e-07
1.799161e-08
5.804841e-09
-1.728658e-08
4.332225e-09
-3.927295e-09
2.097147e-07
2.320346e-08
9.536274e-09
-2.573282e-08
7.255743e-09
-4.774408e-09
-6.080176e-07
-3.979037e-10
-5.387475e-10
-1.042666e-09
3.150779e-09
7.050047e-10
-5.324304e-10
-5.254775e-10
-6.660165e-10
-2.210206e-08
2.278399e-08
4.676237e-09
-2.835303e-09
-3.605743e-09
-2.736407e-09
-3.58962e-09
2.417276e-09
2.686183e-09
2.562359e-09
2.540913e-09
-3.96176e-08
3.11465e-08
5.925534e-09
-6.470876e-08
4.519265e-08
7.186458e-09
-1.019504e-07
6.892308e-08
9.206697e-09
-1.586698e-07
1.069406e-07
1.15237e-08
-2.465825e-07
1.677851e-07
1.537331e-08
-3.825413e-07
2.633155e-07
1.9299e-08
4.137275e-07
2.561154e-08
-5.952205e-07
-5.855238e-09
2.135114e-08
4.232332e-09
-7.769017e-10
-9.923343e-10
2.038012e-10
-8.119633e-10
-3.729238e-09
-4.695918e-09
-3.530411e-09
-5.014775e-09
-1.316699e-08
2.793027e-08
4.80406e-09
-2.233465e-08
3.771212e-08
6.06557e-09
-3.631109e-08
5.60635e-08
7.631257e-09
-5.653705e-08
8.526396e-08
9.844168e-09
-8.723706e-08
1.328147e-07
1.278275e-08
-1.342078e-07
2.087795e-07
1.717314e-08
-2.065883e-07
3.286659e-07
2.264029e-08
5.170932e-07
3.075672e-08
-3.191397e-07
4.900818e-10
1.939266e-08
4.511805e-09
-1.03957e-09
-6.639854e-10
-1.937314e-11
-5.815843e-10
2.687716e-10
2.586665e-08
5.092717e-09
5.01304e-10
3.459066e-08
5.501432e-09
1.715834e-09
5.13073e-08
6.268397e-09
5.16317e-09
7.820337e-08
7.464256e-09
1.203635e-08
1.220726e-07
8.583694e-09
2.239056e-08
1.907971e-07
1.026533e-08
4.086244e-08
3.004243e-07
1.045653e-08
4.716988e-07
1.040298e-08
7.226456e-08
3.288591e-09
2.875957e-09
4.215141e-09
-1.095765e-09
-5.421309e-10
-1.697947e-10
-3.852595e-10
4.231081e-09
3.503227e-09
3.856968e-09
1.138087e-08
1.492592e-08
4.938353e-09
2.247022e-08
1.93515e-08
6.251959e-09
3.798433e-08
2.969531e-08
7.615113e-09
6.217252e-08
4.6081e-08
1.005801e-08
1.014076e-07
7.24092e-08
1.271043e-08
1.629175e-07
1.146803e-07
1.655661e-08
2.616783e-07
1.819384e-07
2.014513e-08
2.855965e-07
2.643938e-08
4.194701e-07
-1.022383e-09
1.064722e-09
1.045888e-09
3.636544e-10
6.254594e-10
5.544121e-10
4.183976e-10
2.238047e-08
5.453848e-10
6.194287e-09
-2.520736e-09
-2.64925e-09
-2.696681e-09
-2.215115e-09
-1.880707e-09
-1.346389e-09
-1.317115e-09
-1.132446e-09
6.592457e-10
2.093924e-10
1.51029e-09
3.872923e-08
-4.402688e-10
5.438363e-09
-2.520548e-09
-1.602238e-09
-1.435135e-09
-1.018362e-09
8.50146e-10
3.05797e-09
1.019573e-09
6.403323e-08
7.403509e-10
7.419028e-09
-3.146055e-09
-2.099707e-09
-1.984125e-09
-9.546859e-10
1.694287e-09
-4.51392e-11
2.224879e-09
1.038866e-07
1.114948e-09
8.120901e-09
-4.302034e-09
-2.233644e-09
-2.683997e-09
-8.775585e-10
2.957697e-09
8.416212e-10
3.65895e-09
1.688217e-07
2.06543e-09
9.138712e-09
-6.364866e-09
-3.142532e-09
-4.107654e-09
-1.166558e-09
4.894758e-09
1.409129e-09
5.373577e-09
2.701919e-07
3.785354e-09
9.358985e-09
-9.038697e-09
-4.061527e-09
-5.419942e-09
-1.017341e-09
8.383366e-09
2.491886e-09
9.566259e-09
4.339769e-07
6.114884e-09
6.871269e-09
-1.336042e-08
-5.283679e-09
-8.060517e-09
-8.112884e-10
1.37904e-08
3.871368e-09
1.603377e-08
9.677778e-09
3.115203e-09
-1.951279e-08
-6.031751e-09
-1.175923e-08
2.205444e-10
2.256161e-08
4.769537e-09
2.519231e-08
6.926211e-07
-1.263645e-09
-2.310459e-09
3.029329e-09
1.32696e-09
-3.166652e-10
-3.922922e-09
5.222035e-09
-1.05203e-09
-2.708601e-09
-6.001048e-09
8.194585e-09
1.214914e-09
-4.051588e-09
-9.565827e-09
1.349829e-08
1.330491e-09
-5.449209e-09
-1.600013e-08
2.198003e-08
1.835822e-09
-8.107018e-09
-2.60362e-08
3.549305e-08
2.843379e-09
-1.147431e-08
-4.257669e-08
5.721205e-08
3.460168e-09
-1.531256e-08
-6.88827e-08
9.118636e-08
3.359145e-09
-2.695487e-08
-1.098098e-07
9.335479e-09
1.449365e-07
-1.659196e-08
0.0006507329
0.0006669827
-0.0003099365
-0.006428057
-0.0003252143
0.0007584799
-4.628688e-06
6.479179e-06
-1.674322e-06
0.0007678429
-7.060452e-06
0.0008076971
9.726088e-05
-5.67189e-05
-0.006510442
-0.0007856655
0.0008114703
2.605946e-06
9.825897e-06
0.0008040314
8.682512e-06
-2.101404e-05
-0.006612965
-0.0008584534
0.0008100122
-6.754231e-07
2.726839e-06
0.0008130842
3.558296e-05
-3.704609e-05
-0.006676708
-0.0008929282
0.0008170977
-2.695529e-07
2.799377e-06
0.0008218871
4.137379e-05
-4.766438e-05
-0.006779242
-0.0008902672
0.0008254166
-9.132849e-07
2.545083e-06
0.0008345429
5.546424e-05
-6.00186e-05
-0.006897228
-0.0009048901
0.0008375212
-3.137268e-07
2.872446e-06
0.000849503
6.64476e-05
-7.168934e-05
-0.007039471
-0.0009182654
0.0008520136
2.303291e-07
3.237868e-06
0.0008673627
7.906601e-05
-8.412725e-05
-0.007206352
-0.0009353401
0.0008691155
4.307104e-07
3.345895e-06
0.0008872875
9.176392e-05
-0.007397352
-0.000953231
0.0008883402
-5.827741e-07
3.038448e-06
-9.731258e-05
0.0002010036
0.005265909
-0.0001340215
-0.005081404
-0.0001304025
6.995981e-05
-0.0001650725
-2.597122e-05
-0.0006958872
-0.02739771
-0.0004172785
0.006804831
0.006889232
0.006686059
0.006724343
0.0002558463
-0.0001839568
0.0003023588
-0.0001510635
-0.0005961744
-0.0281733
-0.000846273
0.006810279
0.006829545
0.006701368
0.00668544
-0.0007053717
-0.0283421
-0.00105269
0.006917558
0.00692328
0.00677149
0.006776911
-0.0008093081
-0.02864355
-0.001090392
0.006995285
0.007003997
0.006843916
0.006851337
-0.0009600359
-0.02900596
-0.001145553
0.007102385
0.007114883
0.006945687
0.006957677
-0.001131314
-0.02949858
-0.001155033
0.007225609
0.007241949
0.007066299
0.007082446
-0.001323797
-0.03008701
-0.001180378
0.007374332
0.007393702
0.007212526
0.007231633
-0.00153564
-0.03078664
-0.001205651
0.007549088
0.00757098
0.007384068
0.007406361
-0.03159384
0.007750777
0.007581882
-0.001772408
0.007776589
0.007609515
-0.001239194
0.000208427
0.00527402
-0.0001751392
-0.005022633
-0.0001929192
0.0001047325
-0.0001690567
-2.743182e-05
-0.0004980005
-0.02726611
-0.0002313409
0.0002338508
-0.0001564647
0.0002423465
3.669084e-05
-0.0007141104
-0.02782411
-0.0006868662
-0.0009559122
-0.02789075
-0.0008120452
-0.00120093
-0.02808789
-0.0009822592
-0.001459287
-0.02841602
-0.001010138
-0.001738042
-0.02886594
-0.001050583
-0.002038977
-0.0294256
-0.001065444
-0.002368044
-0.03008815
-0.001088119
-0.03085492
-0.001111717
-0.002729225
0.0002284479
0.005064873
-0.0001626578
-0.004936185
-0.0001676302
0.0001348303
-0.00015465
-7.027621e-06
-0.0006847622
-0.02690102
-0.0001435505
0.000254033
-0.000111613
0.0002034138
4.654018e-05
-0.0009975098
-0.02737704
-0.0002391609
-0.001281885
-0.02742027
-0.0002848124
-0.001590426
-0.02756194
-0.0003255271
-0.00192197
-0.02784854
-0.0003449324
-0.002283877
-0.02826048
-0.0003536021
-0.002677905
-0.02878408
-0.0003575378
-0.003107366
-0.02940794
-0.0003618258
-0.03012915
-0.0003682688
-0.003577793
0.000226957
0.005007016
-0.0001566982
-0.00489618
-0.0001653533
0.0001384961
-0.0001502704
-3.967754e-06
-0.0007510169
-0.02646377
-5.622783e-05
0.0002613703
-0.0001005043
0.0001649606
8.839408e-06
-0.001137198
-0.02691172
-0.0001310753
-0.001530751
-0.02691778
-0.0001523003
-0.001932442
-0.0270265
-0.000189822
-0.002354715
-0.02728187
-0.000199425
-0.002803464
-0.02765972
-0.0002106507
-0.003285752
-0.02814768
-0.0002119408
-0.003807143
-0.02872984
-0.0002153826
-0.02940161
-0.0002191208
-0.004374787
0.0002268679
0.004982488
-0.0001959206
-0.00481515
-0.0001900335
0.0001392618
-0.0001461095
-1.403764e-06
-0.0008582123
-0.0259959
-5.011147e-05
0.0002737685
-7.491416e-05
0.000183789
2.92419e-05
-0.001335053
-0.02640489
-5.81642e-05
-0.001789128
-0.02640946
-5.905038e-05
-0.002263124
-0.02649555
-6.199041e-05
-0.002757475
-0.02672677
-6.187464e-05
-0.003282733
-0.0270731
-6.245158e-05
-0.003844824
-0.02752457
-6.046878e-05
-0.004450149
-0.02806312
-6.030903e-05
-0.02868232
-6.164659e-05
-0.005106494
0.0002229777
0.004834167
-0.0001676585
-0.004721253
-0.0001639391
0.0001387596
-0.0001427751
-2.793412e-07
-0.0009843538
-0.02546952
-2.951685e-05
0.0002926205
-6.282911e-05
0.000188869
3.626509e-05
-0.00150474
-0.02586334
-4.348614e-05
-0.002030281
-0.02585003
-4.158549e-05
-0.002572879
-0.02591878
-4.179275e-05
-0.003139563
-0.02612572
-3.868839e-05
-0.003737056
-0.02644178
-3.844584e-05
-0.004373026
-0.02685597
-3.582675e-05
-0.00505395
-0.02734954
-3.58716e-05
-0.02791421
-3.767216e-05
-0.005787883
0.0002195022
0.004781949
-0.000193163
-0.004630935
-0.0001764991
0.0001370038
-0.0001396317
1.774444e-06
-0.001084869
-0.02489179
-3.029059e-05
0.000303334
-5.375124e-05
0.0002034934
4.852983e-05
-0.001674489
-0.02526627
-3.351347e-05
-0.002257561
-0.02524451
-2.76843e-05
-0.00286174
-0.02529769
-1.955913e-05
-0.003490632
-0.02548174
-1.308021e-05
-0.004152427
-0.02576799
-9.255773e-06
-0.004854131
-0.02614446
-5.218365e-06
-0.005602292
-0.02659231
-4.275031e-06
-0.02710181
-5.97121e-06
-0.006404261
0.0002159398
0.004657576
-0.0001875086
-0.004522844
-0.0001681643
0.0001361585
-0.0001353419
4.184577e-06
-0.001188395
-0.02425941
-2.506458e-05
0.0003152988
-4.15793e-05
0.0002115268
5.638057e-05
-0.001829162
-0.02461791
-3.368733e-05
-0.002468562
-0.0245853
-2.653179e-05
-0.00312873
-0.02462371
-1.772912e-05
-0.00381531
-0.0247846
-1.003327e-05
-0.004534966
-0.02504148
-5.523715e-06
-0.005295138
-0.02538023
-9.840086e-07
-0.006101476
-0.02578285
1.327497e-07
-0.02623759
-1.925885e-06
-0.006961094
0.0002118216
0.004555304
-0.000196592
-0.004411011
-0.0001686713
0.000134337
-0.00013119
6.001798e-06
-0.00128135
-0.02357742
-2.529778e-05
0.0003244699
-3.061338e-05
0.0002223357
6.546476e-05
-0.001973245
-0.02392084
-3.497086e-05
-0.002661857
-0.02387836
-2.577084e-05
-0.003372154
-0.02390259
-1.513212e-05
-0.00410887
-0.02404093
-6.16871e-06
-0.004879325
-0.0242687
-5.022009e-07
-0.005689936
-0.02457052
4.680345e-06
-0.006546311
-0.02492857
6.117835e-06
-0.02533035
3.913722e-06
-0.007454084
0.0002075874
0.004433173
-0.0001980534
-0.004290975
-0.000166044
0.0001327523
-0.0001265403
8.099776e-06
-0.001365408
-0.02285024
-2.426437e-05
0.0003332067
-1.962273e-05
0.000230643
7.321194e-05
-0.002102875
-0.02317808
-3.731181e-05
-0.002836362
-0.02312621
-2.683502e-05
-0.003591454
-0.02313655
-1.60299e-05
-0.004372798
-0.023253
-6.340063e-06
-0.005187534
-0.02345225
-4.48673e-07
-0.006041596
-0.02371821
5.033962e-06
-0.00693996
-0.02403323
6.528751e-06
-0.02438459
4.141213e-06
-0.007887128
0.0002030361
0.004308541
-0.0002015648
-0.004164693
-0.0001645602
0.0001308981
-0.0001217512
1.009459e-05
-0.001440614
-0.02208273
-2.426696e-05
0.0003403953
-9.703821e-06
0.0002387098
8.084665e-05
-0.002219304
-0.02239461
-3.988054e-05
-0.002992303
-0.02233413
-2.789101e-05
-0.003786643
-0.02233123
-1.678496e-05
-0.004606788
-0.02242656
-6.385226e-06
-0.005459623
-0.02259831
-1.335852e-07
-0.00635046
-0.02282994
5.621398e-06
-0.007283289
-0.02310432
7.211781e-06
-0.023408
4.675279e-06
-0.008262095
0.0001981868
0.004176321
-0.0002045326
-0.004030642
-0.0001634709
0.0001288551
-0.0001168096
1.209272e-05
-0.001505884
-0.02128041
-2.386227e-05
0.0003457426
-4.814156e-07
0.0002456108
8.829141e-05
-0.002321776
-0.02157454
-4.18824e-05
-0.003129587
-0.02150678
-2.86884e-05
-0.003958271
-0.02149125
-1.758458e-05
-0.004812001
-0.02156643
-6.638341e-06
-0.005697136
-0.02171211
-2.903532e-07
-0.006618625
-0.02191114
5.604514e-06
-0.007579718
-0.02214727
7.173225e-06
-0.02240685
4.467076e-06
-0.008583103
0.0001931277
0.004035752
-0.0002058933
-0.003890314
-0.0001616909
0.0001266626
-0.0001117255
1.408171e-05
-0.00156454
-0.02044694
-2.380729e-05
0.0003500612
8.39775e-06
0.0002512864
9.550788e-05
-0.002411326
-0.02072369
-4.426935e-05
-0.00324916
-0.02064891
-2.951906e-05
-0.004107204
-0.0206215
-1.852232e-05
-0.004989405
-0.02067768
-6.962362e-06
-0.005901838
-0.02079861
-4.621196e-07
-0.006848589
-0.02096723
5.656609e-06
-0.007832281
-0.02116786
7.334859e-06
-0.02138724
4.586857e-06
-0.008854374
0.0001877724
0.003889516
-0.0002062552
-0.003745779
-0.0001592929
0.0001242454
-0.00010658
1.637299e-05
-0.001615143
-0.01958667
-2.285209e-05
0.0003536471
1.63875e-05
0.0002556364
0.0001013835
-0.002487832
-0.01984729
-4.561744e-05
-0.003351253
-0.01976569
-2.899496e-05
-0.00423432
-0.01972725
-1.785027e-05
-0.00514075
-0.01976551
-5.72862e-06
-0.00607602
-0.01986318
8.63621e-07
-0.007043566
-0.02000343
6.980106e-06
-0.008044799
-0.02017181
8.603784e-06
-0.02035451
5.635426e-06
-0.009080796
0.0001820506
0.00374214
-0.0002101705
-0.003591524
-0.0001612165
0.0001213836
-0.0001013703
1.870709e-05
-0.001654106
-0.01870798
-2.342279e-05
0.0003529368
2.41194e-05
0.000260393
0.0001108543
-0.002551833
-0.01894701
-4.656856e-05
-0.003436634
-0.01886131
-2.862313e-05
-0.004340643
-0.01881248
-1.749029e-05
-0.0052675
-0.01883369
-4.611908e-06
-0.006221636
-0.01890982
2.129367e-06
-0.007206115
-0.01902385
8.555471e-06
-0.008221419
-0.01916298
1.035663e-05
-0.01931324
7.436823e-06
-0.009267277
-3.273619e-05
-2.708286e-05
-3.192247e-05
9.677731e-05
0.003795134
-0.00380017
-0.001693352
-2.129602e-05
-0.01781121
0.0001145713
0.0003574264
0.0002617948
-0.002603851
-4.646653e-05
-0.01803384
-0.003506038
-2.502497e-05
-0.01794178
-0.00442752
-1.300934e-05
-0.01788325
-0.005371646
7.303786e-07
-0.01788818
-0.006342065
7.525802e-06
-0.01794382
-0.007340601
1.347386e-05
-0.01803354
-0.008366865
1.499896e-05
-0.01814633
1.157112e-05
-0.01826786
-0.009419657
4.83166e-10
-1.008002e-09
-3.272389e-09
1.180466e-09
1.189615e-09
7.301946e-10
4.511213e-10
4.287467e-10
-3.996144e-08
1.534833e-08
6.662739e-09
4.851102e-09
6.502959e-09
5.2141e-09
6.66599e-09
-6.393298e-08
2.2429e-08
8.524113e-09
-1.017896e-07
3.557413e-08
1.065633e-08
-1.599606e-07
5.498691e-08
1.393804e-08
-2.500998e-07
8.654235e-08
1.796063e-08
-3.90418e-07
1.356275e-07
2.331591e-08
2.1339e-07
3.074079e-08
-6.10821e-07
-4.9743e-10
-1.014912e-09
-8.881203e-10
3.105705e-09
1.207994e-09
-4.900438e-10
-5.030933e-10
-7.342626e-10
-2.063338e-08
2.23518e-08
6.657854e-09
-2.773068e-09
-3.781344e-09
-2.717454e-09
-3.501749e-09
2.1218e-09
2.530871e-09
2.304855e-09
2.479835e-09
-3.779761e-08
3.071098e-08
7.914017e-09
-6.278839e-08
4.490731e-08
9.99827e-09
-9.940609e-08
6.893757e-08
1.275568e-08
-1.559118e-07
1.070929e-07
1.643044e-08
-2.428287e-07
1.678941e-07
2.160337e-08
-3.782183e-07
2.634245e-07
2.775219e-08
4.141203e-07
3.709468e-08
-5.899663e-07
-4.498097e-09
2.131555e-08
5.426288e-09
-3.993029e-09
-4.844288e-09
-3.555932e-09
-4.965457e-09
-1.150035e-08
2.775592e-08
6.476159e-09
-2.030653e-08
3.750297e-08
8.367085e-09
-3.351894e-08
5.563992e-08
1.045629e-08
-5.27884e-08
8.486592e-08
1.380435e-08
-8.219781e-08
1.322444e-07
1.770404e-08
-1.273539e-07
2.075096e-07
2.36673e-08
-1.973339e-07
3.262486e-07
3.051708e-08
5.135404e-07
4.108247e-08
-3.06622e-07
6.466832e-10
1.964517e-08
5.793465e-09
1.54871e-09
2.493185e-08
7.326652e-09
3.915537e-09
3.254363e-08
8.218457e-09
8.11779e-09
4.733689e-08
1.069916e-08
1.50699e-08
7.274202e-08
1.316207e-08
2.619398e-08
1.137091e-07
1.671919e-08
4.431416e-08
1.792147e-07
2.098586e-08
7.357207e-08
2.819816e-07
2.58247e-08
4.443204e-07
3.264532e-08
1.208144e-07
4.391456e-09
3.085772e-09
5.140317e-09
3.849085e-09
3.846448e-09
3.863169e-09
1.499562e-08
1.289388e-08
6.369969e-09
2.873599e-08
1.57037e-08
9.278507e-09
4.795962e-08
2.397098e-08
1.171727e-08
7.776361e-08
3.755492e-08
1.553087e-08
1.242598e-07
5.960575e-08
2.032403e-08
1.980665e-07
9.458697e-08
2.703293e-08
3.141071e-07
1.500691e-07
3.557053e-08
2.37817e-07
4.787033e-08
4.984593e-07
-1.316562e-09
1.1111e-09
1.370833e-09
5.093997e-10
4.029446e-10
6.716248e-10
4.35192e-10
1.929941e-08
7.848823e-11
1.081354e-08
-2.61288e-09
-2.223725e-09
-2.44304e-09
-1.882709e-09
-1.345196e-09
5.172955e-10
-1.240441e-09
3.338822e-08
6.852249e-09
5.453014e-08
1.000208e-08
8.753442e-08
1.238983e-08
1.398102e-07
1.612429e-08
2.225966e-07
2.061936e-08
3.532438e-07
2.544972e-08
3.302705e-08
5.606247e-07
-1.749516e-09
-1.372107e-09
1.977953e-09
1.288652e-09
0.0008114191
0.000113553
-0.0007491888
-0.006465646
-6.084148e-05
0.0008108092
-2.839304e-05
-2.392942e-05
-0.0005429016
-0.02686925
-0.0005365164
0.0009203622
0.001473766
-0.0002222903
-0.0001986702
0.0009028963
-0.0002685052
0.001434397
-0.0002664157
-0.0001370935
-0.02711692
-0.0006272215
0.00151239
0.001551701
-0.0002595753
-0.0002472046
-0.0002321108
-0.02752544
-0.0007996394
0.001619612
0.001611031
-0.0002137984
-0.0002100501
-0.0002718047
-0.02792441
-0.0007859692
0.001621811
0.001610048
-0.0002217344
-0.0002222561
-0.0003401318
-0.02841202
-0.000804004
0.001652826
0.00163686
-0.0002196087
-0.0002226074
-0.0004003857
-0.02899197
-0.0008123611
0.001680884
0.001660939
-0.0002244891
-0.0002285132
-0.02967318
-0.0008261608
0.001717046
0.001692952
-0.0002283519
-0.0002331954
-0.0004705154
-0.001021996
-0.02330319
-0.0003395534
0.00551232
0.00660308
0.00575505
0.00658042
0.0005078281
0.0004558514
-0.0007518569
2.045992e-06
-0.0004832571
-0.02728533
-0.0001676562
0.006582318
0.006693006