/*--------------------------------*- C++ -*----------------------------------*\
  =========                 |
  \\      /  F ield         | OpenFOAM: The Open Source CFD Toolbox
   \\    /   O peration     | Website:  https://openfoam.org
    \\  /    A nd           | Version:  7
     \\/     M anipulation  |
\*---------------------------------------------------------------------------*/
FoamFile
{
    version     2.0;
    format      ascii;
    class       volVectorField;
    location    "0.08";
    object      U;
}
// * * * * * * * * * * * * * * * * * * * * * * * * * * * * * * * * * * * * * //

dimensions      [0 1 -1 0 0 0 0];

internalField   nonuniform List<vector> 
109978
(
(0.4671293 0.04267043 0.0009767683)
(0.47326 0.02598035 -0.003849913)
(0.4555955 0.02290058 -0.002742653)
(0.4459566 0.02404814 -0.002368635)
(0.4340331 0.02227346 -0.002320747)
(0.4221383 0.02269914 -0.002226982)
(0.4626345 0.02751203 0.005310409)
(0.4810294 0.02477402 -0.005986399)
(0.4610246 0.02412138 -0.005575321)
(0.4527774 0.02465854 -0.00416858)
(0.4394411 0.02501535 -0.004301772)
(0.42758 0.02511731 -0.004128853)
(0.4556864 0.03572733 0.003720248)
(0.4830011 0.03845174 -0.005536701)
(0.4616396 0.03786699 -0.005663857)
(0.4536647 0.03815202 -0.004089577)
(0.4398989 0.03823867 -0.004224228)
(0.4280648 0.03816473 -0.004053364)
(0.460784 0.05021182 0.004055527)
(0.4826053 0.05146765 -0.005325198)
(0.4614815 0.05123559 -0.00630072)
(0.453438 0.05075103 -0.004332253)
(0.4396303 0.05068554 -0.004593378)
(0.427698 0.05050344 -0.00436004)
(0.4636762 0.06332617 0.004048054)
(0.4830492 0.06433052 -0.005209495)
(0.4613064 0.06371505 -0.006368045)
(0.4527905 0.06326531 -0.004566411)
(0.4389385 0.06309962 -0.005194674)
(0.4268893 0.06280798 -0.004642085)
(0.4663614 0.07558115 0.004220411)
(0.4832976 0.07681494 -0.004949768)
(0.4612433 0.07594568 -0.006326794)
(0.4523064 0.07561274 -0.00469239)
(0.4383326 0.07532852 -0.005343417)
(0.4262185 0.07497517 -0.004833952)
(0.4684156 0.0868682 0.003753736)
(0.4835775 0.08903245 -0.004615565)
(0.4612793 0.08817439 -0.006451323)
(0.4518715 0.08795918 -0.004843697)
(0.4378585 0.08763498 -0.005468053)
(0.4257402 0.08723989 -0.005025091)
(0.47186 0.0984875 0.003192251)
(0.4837203 0.1012548 -0.004480833)
(0.4613117 0.1004451 -0.006689173)
(0.4514866 0.1002829 -0.004996965)
(0.4373829 0.09995026 -0.005601887)
(0.4252315 0.09952898 -0.005211521)
(0.4754662 0.1104086 0.002983608)
(0.4841373 0.1136591 -0.00440221)
(0.4614591 0.112901 -0.006899975)
(0.4511562 0.1126815 -0.005174205)
(0.4369173 0.1123401 -0.00574762)
(0.4247176 0.1119087 -0.005392192)
(0.4782641 0.1230975 0.002845297)
(0.4848999 0.1263127 -0.004138951)
(0.4614503 0.1254996 -0.007084373)
(0.4508574 0.125237 -0.005343763)
(0.4365348 0.1248785 -0.005899713)
(0.424265 0.1244056 -0.005564411)
(0.480197 0.1361493 0.002616694)
(0.4860314 0.1392285 -0.003611884)
(0.461282 0.1382426 -0.007194288)
(0.4503719 0.1378624 -0.005519101)
(0.4358394 0.1374728 -0.006059424)
(0.4234326 0.1369462 -0.005734838)
(0.4815404 0.1492351 0.002559082)
(0.4864254 0.1522805 -0.003458631)
(0.460856 0.1510561 -0.007306856)
(0.4498697 0.1506458 -0.005696586)
(0.4352081 0.1502042 -0.006247971)
(0.422735 0.1496175 -0.005918314)
(0.482599 0.1623484 0.0025636)
(0.4865717 0.1654417 -0.003608229)
(0.4605153 0.1640219 -0.007451887)
(0.4494486 0.1635553 -0.005886149)
(0.4346115 0.1630694 -0.006430222)
(0.4220107 0.1624308 -0.006093358)
(0.483448 0.1756453 0.002536691)
(0.4865577 0.1786272 -0.00379258)
(0.4601942 0.1771633 -0.007630733)
(0.4490026 0.1766534 -0.006062683)
(0.4339636 0.1761076 -0.006602923)
(0.4212142 0.1753927 -0.006260206)
(0.4840931 0.189136 0.002493933)
(0.4864469 0.1920576 -0.003985419)
(0.45982 0.1905105 -0.007807169)
(0.4484983 0.189942 -0.006228358)
(0.4332406 0.1893212 -0.006765468)
(0.4203222 0.1885123 -0.006419376)
(0.4845899 0.2028127 0.002381649)
(0.4862649 0.2057056 -0.004169453)
(0.4593678 0.2040687 -0.007977685)
(0.4479139 0.2034196 -0.006384878)
(0.4324212 0.2027091 -0.006920671)
(0.4193226 0.2017929 -0.006570558)
(0.4849675 0.2166518 0.002207784)
(0.4860362 0.2195693 -0.004348417)
(0.4588285 0.2178323 -0.008139868)
(0.4472415 0.2170927 -0.006532506)
(0.4314964 0.2162834 -0.00706699)
(0.4182037 0.2152498 -0.00671412)
(0.4852854 0.2307137 0.002025443)
(0.4857414 0.233634 -0.004503557)
(0.4581973 0.2318113 -0.008292562)
(0.4464707 0.2309738 -0.006670801)
(0.4304508 0.2300551 -0.007205144)
(0.4169539 0.2288944 -0.00684888)
(0.485565 0.244982 0.001844556)
(0.485426 0.2479303 -0.004646171)
(0.4574787 0.2460183 -0.00843904)
(0.4456007 0.2450808 -0.006797997)
(0.4292759 0.2440447 -0.007333387)
(0.4155602 0.2427452 -0.006973591)
(0.4856395 0.2594412 0.001684581)
(0.4850265 0.2624359 -0.004794886)
(0.4566624 0.2604666 -0.008582302)
(0.4446244 0.2594325 -0.0069151)
(0.4279655 0.2582721 -0.007453373)
(0.4140125 0.2568192 -0.007089806)
(0.4856906 0.2742189 0.00150947)
(0.4845805 0.2772097 -0.004935653)
(0.4557544 0.2751858 -0.008722165)
(0.4435382 0.2740522 -0.007023076)
(0.4265041 0.2727547 -0.007563956)
(0.4122929 0.2711341 -0.007196703)
(0.4856157 0.2893537 0.001315595)
(0.4840956 0.2923247 -0.005119901)
(0.4547521 0.2902111 -0.00884781)
(0.4423303 0.2889626 -0.007120264)
(0.4248829 0.2875152 -0.007668651)
(0.4103902 0.285712 -0.007296618)
(0.451496 0.3146346 -0.002881908)
(0.4836764 0.3079226 -0.005429711)
(0.4536689 0.3055853 -0.008954442)
(0.4409912 0.3041949 -0.007212143)
(0.4230895 0.3025828 -0.007771001)
(0.40828 0.3005743 -0.007391706)
(0.4639466 0.01437187 0.01445228)
(0.4722447 -0.001552866 0.01075617)
(0.4555428 -0.001002497 0.01525186)
(0.4458774 0.0003277982 0.01332168)
(0.4338524 0.0001784508 0.01240456)
(0.422061 0.0003199441 0.01294659)
(0.4534301 -0.04429329 -0.04395177)
(0.4347531 -0.00226853 -0.02341892)
(0.4846165 0.04906073 0.02819023)
(0.439623 0.0115278 -0.006076903)
(0.4483938 0.02362493 0.005138664)
(0.4300702 0.01870437 0.0003817342)
(0.4913023 -0.003182609 -0.09801821)
(0.4130364 0.01048175 -0.0452911)
(0.4914858 0.0413567 0.03121498)
(0.4356461 0.02769315 -0.01546071)
(0.4536705 0.03273372 0.003882876)
(0.4293856 0.03053544 -0.0032303)
(0.5026318 0.01282907 -0.1011979)
(0.4053561 0.03699678 -0.04850908)
(0.481035 0.04634813 0.01960037)
(0.4300924 0.04363763 -0.01312349)
(0.445354 0.04318265 0.00158887)
(0.4267567 0.04422065 -0.001220416)
(0.4955144 0.02013737 -0.08984617)
(0.4052139 0.05717275 -0.04411724)
(0.4799937 0.05400167 0.01779698)
(0.429345 0.05475635 -0.01367487)
(0.4431817 0.05409263 -0.0009105102)
(0.4260437 0.05408953 -0.002933188)
(0.487885 0.02787489 -0.07827787)
(0.4103574 0.07228944 -0.0405305)
(0.4808427 0.06511989 0.01872645)
(0.4302518 0.0673507 -0.01280375)
(0.44355 0.06636947 -6.253516e-05)
(0.4261613 0.06632341 -0.001994218)
(0.4807318 0.03583143 -0.06960054)
(0.4177097 0.0847582 -0.03641094)
(0.4826619 0.0762324 0.02158161)
(0.4320368 0.07955577 -0.0123443)
(0.444838 0.07831978 0.0009306281)
(0.4264032 0.0781123 -0.002273382)
(0.4739773 0.04213285 -0.06278671)
(0.4241079 0.09630174 -0.03028594)
(0.4829386 0.08792568 0.02138823)
(0.4343886 0.09220452 -0.01119766)
(0.4457857 0.09052934 0.001721652)
(0.4268191 0.09044265 -0.001763565)
(0.4683851 0.04937839 -0.0539707)
(0.4305423 0.1075208 -0.02700608)
(0.4833391 0.1004439 0.02076605)
(0.4367077 0.1045277 -0.0100165)
(0.447393 0.102781 0.002938772)
(0.427128 0.1026631 -0.001602932)
(0.4666445 0.05946009 -0.04454874)
(0.4332443 0.1193933 -0.02561463)
(0.4828259 0.1138164 0.01886564)
(0.4380777 0.1168244 -0.009272087)
(0.4482282 0.1153484 0.003436701)
(0.4272619 0.1153751 -0.001384254)
(0.4647262 0.06699836 -0.04142415)
(0.4362951 0.1321717 -0.02688363)
(0.4831348 0.1272749 0.01863904)
(0.4391634 0.1290401 -0.008387817)
(0.4484291 0.1280862 0.003803625)
(0.4269826 0.1279462 -0.001368893)
(0.4637698 0.07423425 -0.03836493)
(0.4375337 0.1442463 -0.02609259)
(0.4836616 0.1405063 0.01903363)
(0.4395949 0.141479 -0.007881408)
(0.4485326 0.1408774 0.004207627)
(0.4265845 0.1405191 -0.001409952)
(0.463343 0.08328724 -0.036565)
(0.4389449 0.1567469 -0.02536445)
(0.4843872 0.1537699 0.02007658)
(0.4397674 0.1541971 -0.007658431)
(0.4485502 0.153857 0.004449623)
(0.4260424 0.1534063 -0.001557921)
(0.4626347 0.09471399 -0.03572347)
(0.4395553 0.1694556 -0.02572278)
(0.4844438 0.1670308 0.02056458)
(0.439291 0.1671774 -0.007990594)
(0.4482256 0.1668504 0.004319948)
(0.4253503 0.1664258 -0.001708184)
(0.461789 0.1047962 -0.03443159)
(0.4406112 0.1824542 -0.02796356)
(0.4846798 0.180265 0.02117439)
(0.4388457 0.1802859 -0.008308123)
(0.4476934 0.1798788 0.003939098)
(0.4246108 0.179495 -0.00182436)
(0.4611295 0.1136794 -0.03317613)
(0.4412582 0.1956536 -0.02941323)
(0.4846783 0.1936774 0.02111791)
(0.4383439 0.1936308 -0.008523576)
(0.4472662 0.1931541 0.00392975)
(0.4238292 0.1926783 -0.001854977)
(0.4606703 0.1216387 -0.03209329)
(0.4417087 0.2090609 -0.03036092)
(0.4846227 0.2073075 0.02122162)
(0.4377017 0.2071341 -0.008684608)
(0.4466862 0.2066151 0.003912028)
(0.4229331 0.2059835 -0.001910691)
(0.4601996 0.1303918 -0.03117889)
(0.4419601 0.222719 -0.03124108)
(0.4844705 0.2211233 0.02128254)
(0.4369694 0.2208432 -0.008838463)
(0.4461369 0.2202862 0.004035701)
(0.4219421 0.2194867 -0.001942418)
(0.459539 0.1390723 -0.03039686)
(0.4423177 0.2365316 -0.03201604)
(0.4843554 0.2351839 0.02159532)
(0.436122 0.2348073 -0.008998591)
(0.4455503 0.2342053 0.004225611)
(0.4208274 0.2331985 -0.001998583)
(0.4588479 0.1473894 -0.02971379)
(0.4422661 0.2504552 -0.0323699)
(0.4842844 0.2494538 0.02204353)
(0.4351529 0.2490071 -0.009176017)
(0.4448064 0.248388 0.004429088)
(0.4195612 0.2471523 -0.002053741)
(0.4583112 0.156225 -0.02907792)
(0.4420981 0.2645559 -0.03283214)
(0.4842156 0.2639348 0.02261571)
(0.4341005 0.2634451 -0.00936058)
(0.4438956 0.2628374 0.004617471)
(0.4181296 0.2613947 -0.002143066)
(0.4579155 0.1656544 -0.02861493)
(0.4422021 0.2790165 -0.03389121)
(0.4840659 0.2786515 0.02313133)
(0.432965 0.2781133 -0.009502127)
(0.4428272 0.2775326 0.004861603)
(0.41652 0.2759188 -0.0022159)
(0.4575466 0.1753443 -0.02831473)
(0.442474 0.2939548 -0.03526049)
(0.4839368 0.2936974 0.02370595)
(0.4317802 0.2930568 -0.00960994)
(0.4416797 0.2924743 0.005178636)
(0.4147452 0.2907044 -0.002253927)
(0.427046 0.1955825 -0.03747384)
(0.4426728 0.3092799 -0.03673853)
(0.4838613 0.3091187 0.0243987)
(0.4305175 0.3083827 -0.009725668)
(0.4404561 0.3077297 0.005565141)
(0.412796 0.3057962 -0.00227665)
(0.4627208 0.008112764 0.002453586)
(0.4971877 -0.003679087 0.002961411)
(0.467098 -0.004629298 0.00183087)
(0.4551466 -0.001918897 0.0003891565)
(0.4429663 -0.003399494 0.001917882)
(0.4313033 -0.003107923 0.002562846)
(0.4850828 -0.1166961 -0.001045419)
(0.4095551 -0.01906573 -0.02492204)
(0.4882105 0.04943542 0.007738688)
(0.4344202 0.00461882 -0.003200333)
(0.4539489 0.02481784 0.00350929)
(0.4291142 0.01558048 0.0006062184)
(0.3758858 0.003123266 -0.05164306)
(0.4215024 0.0119044 -0.01624773)
(0.5150766 0.0350116 0.001425089)
(0.4492997 0.02219556 -0.01163442)
(0.4601998 0.02900458 -0.003700671)
(0.432908 0.02842907 -0.00242556)
(0.3251971 0.006258561 -0.01214577)
(0.42892 0.03051905 -0.02137809)
(0.5097378 0.05033103 -0.00252683)
(0.4392795 0.04347166 -0.01120533)
(0.4564287 0.04433564 -0.001834207)
(0.4283881 0.04256418 -0.001389194)
(0.412575 0.01781593 0.003264703)
(0.4369941 0.05842218 -0.01955683)
(0.5089454 0.05735993 -0.002881288)
(0.4487568 0.05455534 -0.008774577)
(0.4598066 0.05324284 -0.001908348)
(0.4334282 0.05374718 -0.002010349)
(0.442934 0.02384483 0.001440095)
(0.4389564 0.07488343 -0.01968646)
(0.5087855 0.06817407 -0.001613981)
(0.4451488 0.06841513 -0.008546984)
(0.4570173 0.06686319 -0.000221371)
(0.4293209 0.06773715 -0.002358507)
(0.4555797 0.03640781 0.0003198341)
(0.4405738 0.09059866 -0.0183574)
(0.5065932 0.07911063 0.0006872112)
(0.4472928 0.08076584 -0.007420325)
(0.4560433 0.07814946 -6.076283e-05)
(0.431168 0.07874768 -0.001977721)
(0.4605827 0.04680774 -0.003019621)
(0.4417664 0.1021619 -0.01785003)
(0.5026759 0.09008755 0.002617463)
(0.4462723 0.09350366 -0.006745474)
(0.4543628 0.09115476 -9.382243e-05)
(0.4295765 0.09187947 -0.001548548)
(0.4670847 0.05645983 -0.004826936)
(0.4431316 0.1108222 -0.01595992)
(0.4981806 0.1020719 0.00318541)
(0.4442757 0.1057616 -0.006282756)
(0.4526327 0.1032846 -0.0002513476)
(0.4294793 0.1038059 -0.0007682628)
(0.4725918 0.0625973 -0.004573932)
(0.4460013 0.122208 -0.01486126)
(0.4945317 0.1148247 0.002444928)
(0.4441755 0.1178509 -0.006072542)
(0.4511636 0.1156449 -0.0006562104)
(0.4292749 0.1161702 -0.0002933928)
(0.4708267 0.06673122 -0.004368737)
(0.446548 0.1340549 -0.01538927)
(0.4926165 0.1282351 0.002111992)
(0.444273 0.1301564 -0.005300246)
(0.4511894 0.1283704 -0.0001172179)
(0.4296105 0.1283117 0.000492572)
(0.4722695 0.06951592 -0.001498918)
(0.4435285 0.1465523 -0.01563302)
(0.4911822 0.1414703 0.001851375)
(0.4439994 0.1423392 -0.004563271)
(0.4510519 0.140927 0.0002427586)
(0.4288595 0.1407013 0.0003778475)
(0.4730671 0.0789384 0.001860987)
(0.4432323 0.1594833 -0.01639324)
(0.4901982 0.1547353 0.002078171)
(0.4443569 0.1546664 -0.004157722)
(0.4505473 0.1533456 0.0004933955)
(0.4284312 0.1532277 7.003289e-05)
(0.4709808 0.1081103 0.003248783)
(0.4431359 0.171232 -0.0167892)
(0.4905253 0.1682266 0.003160857)
(0.4448353 0.1673466 -0.003986672)
(0.4501428 0.1660515 0.0007861059)
(0.4279983 0.1659931 0.0001616685)
(0.4699343 0.1147076 0.006204105)
(0.4415361 0.1840402 -0.01658885)
(0.4914518 0.1813376 0.003697144)
(0.445447 0.1801978 -0.003662431)
(0.4502829 0.1793499 0.001130772)
(0.4274528 0.1790992 0.0003245415)
(0.4698333 0.1211695 0.007599314)
(0.4427753 0.1983129 -0.01738324)
(0.4920889 0.1946918 0.004376296)
(0.4449614 0.1933763 -0.003703155)
(0.4497085 0.1928465 0.001119562)
(0.4266677 0.1924171 0.0005980856)
(0.4695761 0.1272784 0.008339351)
(0.442359 0.2123581 -0.01789167)
(0.4923846 0.2085108 0.004940544)
(0.4442485 0.2068242 -0.003647927)
(0.4491998 0.2063815 0.00120186)
(0.4258084 0.205832 0.0007909321)
(0.4690231 0.1377329 0.008989882)
(0.4422376 0.2263312 -0.01831535)
(0.4925455 0.2224701 0.005606255)
(0.4432625 0.2205193 -0.00387261)
(0.4486248 0.220115 0.001136359)
(0.4248968 0.2194332 0.0008774067)
(0.4686645 0.1472915 0.00933815)
(0.4417129 0.2404842 -0.01847166)
(0.4927681 0.236749 0.006362545)
(0.4424214 0.2344531 -0.003995069)
(0.4480047 0.2340792 0.001000674)
(0.4238074 0.2332098 0.001020584)
(0.4687774 0.1536483 0.009497812)
(0.4415828 0.254814 -0.01908168)
(0.4930737 0.2511401 0.007112663)
(0.4417875 0.2486267 -0.003872924)
(0.4473478 0.2483009 0.0009216606)
(0.4225648 0.2471963 0.0009926818)
(0.4687951 0.1626554 0.01007852)
(0.4416409 0.2691347 -0.02018529)
(0.493592 0.2657604 0.007711716)
(0.4412837 0.263084 -0.003626495)
(0.4467818 0.2628751 0.0009585511)
(0.4211837 0.261424 0.0009084193)
(0.4680633 0.1739369 0.01020936)
(0.4404726 0.2832781 -0.02073378)
(0.4939956 0.2806328 0.008398834)
(0.4403121 0.2778693 -0.003353925)
(0.4460433 0.2777941 0.001149518)
(0.4194819 0.2760413 0.0008674512)
(0.4673341 0.1839612 0.009895078)
(0.4388116 0.2977618 -0.02107596)
(0.4941087 0.2956979 0.009084679)
(0.4387902 0.2929245 -0.003192893)
(0.4448332 0.2928819 0.001347671)
(0.4175638 0.290936 0.0008765571)
(0.4665459 0.1934047 0.009455526)
(0.437011 0.3126621 -0.02153608)
(0.4940336 0.3110648 0.009750272)
(0.4369635 0.3083022 -0.003153065)
(0.4432742 0.3082304 0.001494339)
(0.4154538 0.3061513 0.0009006014)
(0.4449856 0.006041464 0.0001463282)
(0.5022697 -0.00775732 0.0008107542)
(0.4686672 -0.00747572 -0.004976022)
(0.4603319 -0.004190475 0.0007011477)
(0.4437863 -0.003171018 0.0003040639)
(0.4313789 -0.00294472 0.0006943504)
(0.5312097 -0.1116752 0.005301765)
(0.4007266 -0.02726048 -0.01443873)
(0.4769712 0.0375657 0.002765916)
(0.4267687 0.001092781 -0.001612804)
(0.446018 0.01960204 0.000578603)
(0.4263623 0.01582596 0.002192028)
(0.2094669 -0.004284785 -0.002664379)
(0.445753 0.01376999 -0.01476528)
(0.5321391 0.02857394 0.003959416)
(0.4531183 0.01924621 -0.005838711)
(0.4640046 0.02780757 0.002510793)
(0.4327554 0.0288088 -0.0003903015)
(0.4911123 -0.05147411 0.002703631)
(0.4489157 0.03763221 -0.008747096)
(0.5129245 0.04648581 -0.0009175072)
(0.4452549 0.04697842 -0.004595892)
(0.4475884 0.04240429 -0.002147416)
(0.4272349 0.04439253 0.0007852184)
(0.473406 0.01486147 0.003439152)
(0.4465507 0.05494458 -0.01574482)
(0.50564 0.05666549 0.001498152)
(0.4455898 0.05732121 -0.002089653)
(0.4563079 0.0548626 0.0009159857)
(0.4287138 0.05425579 0.0005753599)
(0.4777408 0.04082252 0.002461669)
(0.4413408 0.07099627 -0.01427284)
(0.5018458 0.06860594 0.004576645)
(0.4415954 0.07111374 -0.0007814845)
(0.4518967 0.06731992 0.0004412377)
(0.4267145 0.06819208 0.001802252)
(0.4803158 0.06081124 0.0004113794)
(0.4379148 0.08602014 -0.0115772)
(0.497199 0.07994426 0.005449013)
(0.4405215 0.08199791 -0.0002066882)
(0.4516186 0.07875314 0.001500674)
(0.4273555 0.07865516 0.001286559)
(0.4798508 0.0809038 -0.001722152)
(0.4380985 0.09916048 -0.0116885)
(0.4950675 0.09076143 0.00490073)
(0.4415556 0.09328197 5.578371e-05)
(0.4505443 0.09076358 0.001412347)
(0.4265458 0.09142246 0.0008374104)
(0.485094 0.07187299 -0.001784177)
(0.4440021 0.1107004 -0.01121967)
(0.493527 0.101212 0.006161116)
(0.44372 0.1045728 -0.0002619854)
(0.4493105 0.1026843 0.000841738)
(0.4269391 0.1038263 0.0008143546)
(0.4880511 0.06933208 -0.0006116173)
(0.4505383 0.1212832 -0.008610844)
(0.4936517 0.1136831 0.005412739)
(0.4452026 0.1167541 -0.001088124)
(0.4479625 0.1154658 0.0002066202)
(0.4272738 0.1165861 0.0005819745)
(0.4849288 0.07016358 0.0002907351)
(0.4506053 0.1339434 -0.006277575)
(0.4897698 0.1271261 0.004289757)
(0.4427751 0.1299244 -0.001184511)
(0.4447541 0.1281322 -0.0002365727)
(0.426229 0.1286435 0.0007859717)
(0.483489 0.08289085 0.001628726)
(0.4532123 0.1484973 -0.009019084)
(0.4887268 0.1408069 0.003178708)
(0.4422636 0.1425153 -0.001478913)
(0.4459009 0.1407356 0.0003675373)
(0.4259333 0.1405736 0.0008781522)
(0.4818944 0.08901499 0.004957372)
(0.4520096 0.160517 -0.01050748)
(0.4891116 0.1548309 0.002614586)
(0.4419156 0.1551263 -0.001833305)
(0.4468078 0.1537035 0.0007990498)
(0.4254267 0.1535974 0.0006517875)
(0.478934 0.0994135 0.007697943)
(0.4469802 0.1727533 -0.01116342)
(0.4868178 0.1679533 0.002544899)
(0.4404244 0.1680113 -0.001991932)
(0.4455251 0.1665179 0.0004965366)
(0.424152 0.1665079 0.0003112493)
(0.4784996 0.1063044 0.01064042)
(0.4479148 0.1860806 -0.01452166)
(0.4855246 0.1811717 0.003141675)
(0.4384509 0.1805724 -0.00197851)
(0.4451125 0.1794052 0.0007054901)
(0.4231663 0.179097 0.0004792869)
(0.4780741 0.1135428 0.0117015)
(0.4471518 0.1992572 -0.01465642)
(0.4855116 0.1949726 0.003204778)
(0.4390202 0.1931729 -0.001498579)
(0.4445234 0.1924295 0.000749105)
(0.4224233 0.1924329 0.0005781453)
(0.4775226 0.122323 0.0119453)
(0.4460649 0.2132919 -0.01544275)
(0.4855686 0.2087979 0.00340706)
(0.4380453 0.2064066 -0.001359474)
(0.4436726 0.2057428 0.0007228991)
(0.4213986 0.2060183 0.0007097766)
(0.4768836 0.1325252 0.01213914)
(0.4449081 0.2273441 -0.01533001)
(0.4857613 0.2227842 0.003436643)
(0.4382337 0.219863 -0.001046462)
(0.4421889 0.2192066 0.0003912634)
(0.420433 0.2195312 0.0007811905)
(0.4765177 0.142342 0.01206009)
(0.4441061 0.2413378 -0.01590235)
(0.4860962 0.2367439 0.003859046)
(0.4379398 0.2339737 -0.0009065608)
(0.4410769 0.2331067 0.0003399629)
(0.4193665 0.2331981 0.0008437498)
(0.4763836 0.1504879 0.01253251)
(0.443224 0.255014 -0.01684536)
(0.4863911 0.2507238 0.004287835)
(0.4373133 0.2483859 -0.0006236779)
(0.4403746 0.2472665 0.0005535425)
(0.4181683 0.2469066 0.0009307187)
(0.4762753 0.1573483 0.01366597)
(0.4431296 0.2693096 -0.01771684)
(0.4868654 0.2651812 0.004576287)
(0.4365546 0.2630318 -0.0002835139)
(0.4403545 0.2618115 0.001028295)
(0.4168206 0.2611135 0.001017818)
(0.476096 0.1684601 0.01382841)
(0.4422071 0.2839655 -0.01869874)
(0.4863477 0.2801049 0.004746226)
(0.4351786 0.2778284 8.041351e-05)
(0.4397351 0.2766286 0.001501425)
(0.4152141 0.275705 0.001084054)
(0.4754562 0.1781451 0.01328975)
(0.4410083 0.2986217 -0.02006629)
(0.4859036 0.2952747 0.005152345)
(0.4337604 0.2926836 0.0005148097)
(0.4388499 0.2916373 0.001909645)
(0.4133934 0.2905493 0.001162883)
(0.4747932 0.1873079 0.01280191)
(0.4396167 0.3135031 -0.02139029)
(0.4857455 0.3107403 0.005579587)
(0.4324751 0.3078314 0.0009372848)
(0.4376772 0.3068928 0.002192288)
(0.4113098 0.3057009 0.001217114)
(0.4399454 0.006040098 -0.007528089)
(0.4975801 -0.01032886 0.001201206)
(0.4713128 -0.008112296 0.0017757)
(0.4622026 -0.005863563 -0.0006069859)
(0.4444993 -0.003170314 -0.000388462)
(0.4326344 -0.003010387 0.0001861684)
(0.5406358 -0.1032205 0.003147505)
(0.3961132 -0.02560066 -0.004193514)
(0.4775832 0.0372222 3.741965e-05)
(0.4264965 0.002430902 -0.0009206191)
(0.4421034 0.01497171 -0.0005045111)
(0.4251233 0.01546784 -0.0001826011)
(0.2920615 0.006064888 -0.02314789)
(0.4425998 0.00687645 -0.00404765)
(0.5249393 0.02024738 -0.001541449)
(0.451449 0.02174677 -0.0004836495)
(0.4631354 0.02585733 0.0006553155)
(0.434879 0.02819366 -0.0003444142)
(0.4723634 -0.02605772 -0.0010025)
(0.4683184 0.04074248 0.00218036)
(0.5162207 0.04573168 -0.001280927)
(0.4527985 0.0451801 -0.002115037)
(0.4556094 0.04333464 -0.00127292)
(0.4288415 0.04380567 -0.002111604)
(0.4696348 0.02076438 0.002630518)
(0.4466825 0.05536892 0.002409256)
(0.5022572 0.05755073 -0.001466345)
(0.4469444 0.05782755 -0.0008896583)
(0.4550278 0.05628207 -0.000926683)
(0.4340758 0.05425566 -0.000562377)
(0.4796428 0.02988652 -0.002816433)
(0.4347901 0.07125842 -0.0004885273)
(0.4930361 0.0701271 -0.000988042)
(0.439319 0.07176278 -0.0009768412)
(0.4492976 0.06777642 -0.0008111446)
(0.4264359 0.06856567 -0.0004397155)
(0.4873943 0.0426207 -0.003861914)
(0.4355127 0.08832808 -0.002249292)
(0.4896784 0.08175856 -0.000739972)
(0.4417641 0.08184807 -0.000214784)
(0.4487177 0.07890149 -0.0007586853)
(0.4300188 0.07882003 -0.0001316727)
(0.4887196 0.04763 -0.001481219)
(0.4374757 0.101215 -0.001657112)
(0.4923353 0.09241161 0.0001310035)
(0.4435396 0.09347618 -0.0004956528)
(0.4504596 0.08982521 -0.0003637178)
(0.4313246 0.09105642 -0.0003595518)
(0.4910659 0.0549819 -0.001527353)
(0.4397029 0.111199 -0.001291805)
(0.4914588 0.1030666 0.0005318749)
(0.4453426 0.1051542 -0.0007102053)
(0.4498229 0.1022413 -0.0004776102)
(0.4298049 0.1034187 -0.00039126)
(0.4935009 0.06173444 -0.001915038)
(0.4466621 0.1216517 -0.0007461306)
(0.4919988 0.114622 0.0005594305)
(0.4476311 0.117355 -0.0004494099)
(0.4498246 0.1151449 -0.0006038909)
(0.4297332 0.1158479 -0.0005232252)
(0.4894842 0.06822247 -0.00180083)
(0.4494113 0.1329765 -0.0006462579)
(0.4892443 0.1277797 0.0002830328)
(0.4459154 0.1303068 -0.0004378138)
(0.4484381 0.1284402 -0.0006248114)
(0.4281375 0.1286071 -0.0009311556)
(0.4878965 0.09131721 -0.001063554)
(0.4501929 0.1453093 -0.001345326)
(0.4852824 0.1409104 -0.0002792544)
(0.4437876 0.1424412 -0.0002124665)
(0.4467621 0.1407351 -0.0005397864)
(0.4275645 0.1404542 -0.0007260416)
(0.4856453 0.1038123 0.0007744125)
(0.4541081 0.1588 -0.001688995)
(0.4862938 0.1540518 -0.001068291)
(0.4450254 0.1538214 -0.0001635284)
(0.4472517 0.153062 -0.0009316824)
(0.427761 0.1527317 -0.0006748594)
(0.4824789 0.09898593 0.006977492)
(0.4586208 0.1704052 -0.001456457)
(0.4924367 0.1681862 -0.0009666704)
(0.4488343 0.1668138 -0.0007436458)
(0.4497654 0.166169 -0.001464797)
(0.4289349 0.165519 -0.0005505345)
(0.4812271 0.1017605 0.01160969)
(0.4530915 0.183983 0.0003960009)
(0.4897937 0.1809365 -0.001436355)
(0.4457676 0.1804077 -0.0002608012)
(0.4484626 0.1793888 -0.001897893)
(0.4264906 0.1790669 -0.0008682936)
(0.4801905 0.1109053 0.0117233)
(0.4527177 0.1984385 -0.0009290361)
(0.4906217 0.1945457 -0.001330197)
(0.4456179 0.1931993 -0.0008696578)
(0.4481426 0.1928324 -0.001844607)
(0.4253374 0.192351 -0.001434189)
(0.4796234 0.1197185 0.01122009)
(0.4511795 0.2120408 -0.0005693094)
(0.4886307 0.2079498 -0.001428571)
(0.4444558 0.2066013 -0.0006937186)
(0.446664 0.2060484 -0.001913523)
(0.4243137 0.2056831 -0.001040023)
(0.4791124 0.1292302 0.01095626)
(0.4519251 0.226185 -0.001762585)
(0.489624 0.2220163 -0.0009708471)
(0.444262 0.2201799 -0.0005466777)
(0.4463626 0.2196818 -0.001755006)
(0.4231052 0.2193181 -0.001495762)
(0.4786762 0.136994 0.01051095)
(0.4492859 0.2396705 -0.001309189)
(0.4888935 0.2361167 -0.0007038445)
(0.4430946 0.2343363 -0.0004410343)
(0.4455446 0.2335244 -0.001494004)
(0.4218734 0.2329795 -0.001294375)
(0.4783933 0.1441952 0.009669493)
(0.4475313 0.2535534 -0.001191077)
(0.48751 0.2502006 -0.0005487048)
(0.4415992 0.2487952 -0.0001825244)
(0.444769 0.2477525 -0.00121918)
(0.4204198 0.2470282 -0.001371289)
(0.4785069 0.1534376 0.008022019)
(0.4458895 0.2676168 -0.001194453)
(0.4862726 0.2645772 -0.0004193119)
(0.4400215 0.2633329 2.064858e-05)
(0.4435358 0.2624602 -0.0009889545)
(0.418879 0.2612037 -0.001182859)
(0.4762671 0.1677313 0.008200168)
(0.4438371 0.2816432 -0.001191226)
(0.4854537 0.2793131 -0.0001332897)
(0.4377465 0.2782209 0.0002070103)
(0.4424512 0.2774977 -0.0007428802)
(0.4171062 0.2757402 -0.0010148)
(0.4741556 0.1770779 0.008158165)
(0.4406346 0.2960934 -0.0008214262)
(0.4832835 0.2941698 -3.700022e-05)
(0.4350762 0.2932262 0.0005473023)
(0.4408684 0.2925292 -0.0004775746)
(0.4149669 0.29059 -0.0008333193)
(0.4718635 0.1859677 0.008397909)
(0.4387198 0.3108303 -0.001509542)
(0.4818506 0.3094206 5.284259e-05)
(0.4330414 0.3083643 0.0008992901)
(0.4391083 0.3078379 -0.0002298558)
(0.4127495 0.3057615 -0.0006478472)
(0.4404246 -0.0001422692 0.001351885)
(0.4934961 -0.008398851 -7.569229e-05)
(0.4684536 -0.006233631 0.001513261)
(0.4557668 -0.001881521 8.115446e-05)
(0.443934 -0.002815487 0.0005816336)
(0.4310981 -0.002122334 0.0001991672)
(0.5385841 -0.1157579 -0.0001349082)
(0.3956075 -0.02613583 0.0050779)
(0.4777525 0.03800295 -7.129119e-05)
(0.4265833 0.00197141 0.001009781)
(0.4424082 0.015285 0.0004771949)
(0.4252122 0.01529007 0.0002129639)
(0.255522 0.0001422242 0.006066043)
(0.4421826 0.006762995 0.003701367)
(0.5257774 0.02050451 0.001510662)
(0.4518334 0.02179818 0.0004924805)
(0.4632148 0.02587212 -0.0006576043)
(0.4350664 0.02825697 0.0003461015)
(0.5062878 -0.09035788 -0.004128205)
(0.4686154 0.04073721 -0.002049808)
(0.5166216 0.04594879 0.001219753)
(0.4531062 0.04521653 0.00213009)
(0.4559434 0.04344115 0.001262734)
(0.4289062 0.04380298 0.002125171)
(0.4868188 -0.006692472 -0.00401052)
(0.4459227 0.05544188 -0.002764251)
(0.5021071 0.05752458 0.00150703)
(0.4469343 0.05781906 0.0008963792)
(0.4551255 0.05630049 0.0009122319)
(0.4342721 0.05424442 0.0005671143)
(0.4904676 0.02833656 0.001378978)
(0.4351919 0.07137173 0.0005540366)
(0.4933494 0.07011014 0.0009383744)
(0.4394688 0.07177914 0.0009738315)
(0.449367 0.06777718 0.000792313)
(0.4264578 0.068579 0.0004614906)
(0.4943916 0.03916344 0.004055633)
(0.4355953 0.08832741 0.002205751)
(0.4896461 0.08177819 0.0007227962)
(0.4418864 0.08185768 0.0002230169)
(0.4487323 0.07889639 0.0007514606)
(0.4300686 0.07882473 0.0001268701)
(0.496262 0.05884516 0.006297654)
(0.4375873 0.1012179 0.00161447)
(0.4923206 0.09244199 -0.0001766231)
(0.4435556 0.09348383 0.0004951438)
(0.4504903 0.08982406 0.0003588946)
(0.4313427 0.09106101 0.0003541534)
(0.4976722 0.07852769 0.007029036)
(0.4396746 0.1111511 0.001216507)
(0.4914289 0.1030986 -0.0005670081)
(0.4453455 0.1051611 0.0006993064)
(0.4498222 0.1022415 0.0004721259)
(0.429805 0.1034211 0.0003855238)
(0.4991359 0.08843662 0.005792476)
(0.4467209 0.1216512 0.0007031109)
(0.4920139 0.1146367 -0.0006086555)
(0.4476513 0.1173589 0.0004328561)
(0.4498265 0.1151501 0.0005971687)
(0.4297285 0.1158496 0.000516644)
(0.4943165 0.08693989 0.004332513)
(0.4495157 0.133003 0.0006235034)
(0.489259 0.1277937 -0.0003339359)
(0.4458994 0.1303289 0.0004163959)
(0.4484465 0.1284476 0.0006194158)
(0.4281437 0.1286065 0.0009236481)
(0.4940064 0.0824925 0.00449174)
(0.4502098 0.1453131 0.001285223)
(0.4852449 0.1409172 0.0002568063)
(0.4437598 0.1424605 0.0001921527)
(0.4467611 0.1407374 0.0005376411)
(0.4275572 0.1404546 0.0007144064)
(0.4921904 0.08816845 0.004933194)
(0.4541735 0.1588143 0.00163625)
(0.4862938 0.1540507 0.0010517)
(0.4450116 0.1538278 0.0001516764)
(0.4472636 0.1530651 0.0009304749)
(0.4277621 0.1527288 0.0006648723)
(0.4884782 0.09693694 0.002030916)
(0.4587522 0.1703892 0.001378785)
(0.4925036 0.1682001 0.0008871146)
(0.4488229 0.1668261 0.0007458585)
(0.4498081 0.1661834 0.001459051)
(0.428916 0.1655253 0.0005507003)
(0.4814019 0.1079268 -0.006916828)
(0.4526974 0.1840241 -0.0005704966)
(0.4896532 0.180878 0.001467411)
(0.4456663 0.1804444 0.0002659803)
(0.4484598 0.1793969 0.001899603)
(0.426479 0.1790688 0.0008520478)
(0.4796095 0.1143735 -0.009737735)
(0.4527721 0.1984216 0.000890046)
(0.4906899 0.1945343 0.001288469)
(0.445555 0.1932224 0.0008703081)
(0.44821 0.1928505 0.001837329)
(0.4252822 0.1923698 0.001408721)
(0.4783418 0.1222559 -0.01107718)
(0.4506075 0.2119892 0.0002779837)
(0.4883667 0.207911 0.001479891)
(0.4442812 0.2066253 0.0007079804)
(0.4466911 0.2060626 0.001912771)
(0.4242933 0.2056857 0.001018544)
(0.4773818 0.1303348 -0.01196172)
(0.4518924 0.2261396 0.001645361)
(0.489593 0.2220095 0.0009472128)
(0.4440843 0.220149 0.0005372685)
(0.4464127 0.219701 0.001751497)
(0.4229833 0.2193562 0.001467105)
(0.4762884 0.1401742 -0.01236979)
(0.4487974 0.2396641 0.001079325)
(0.4887614 0.2360767 0.0007139887)
(0.4429061 0.234347 0.0004461301)
(0.4455409 0.2335447 0.001493224)
(0.4218414 0.2329869 0.001275981)
(0.4748793 0.1510253 -0.01287847)
(0.4469704 0.2535134 0.000868016)
(0.4872641 0.2501566 0.0005829269)
(0.4414344 0.2487882 0.0001621581)
(0.4446871 0.2477715 0.001206267)
(0.4203801 0.2470421 0.00135466)
(0.4734625 0.1616121 -0.01367527)
(0.447061 0.2678224 0.001869463)
(0.4865488 0.2646342 0.0003255556)
(0.439971 0.263351 -3.53038e-05)
(0.4434446 0.2624906 0.0009958257)
(0.4188187 0.2612243 0.001185428)
(0.4714861 0.1713262 -0.01409852)
(0.4436784 0.2816273 0.0011599)