/*--------------------------------*- C++ -*----------------------------------*\
  =========                 |
  \\      /  F ield         | OpenFOAM: The Open Source CFD Toolbox
   \\    /   O peration     | Website:  https://openfoam.org
    \\  /    A nd           | Version:  7
     \\/     M anipulation  |
\*---------------------------------------------------------------------------*/
FoamFile
{
    version     2.0;
    format      ascii;
    class       surfaceScalarField;
    location    "0.07";
    object      phi;
}
// * * * * * * * * * * * * * * * * * * * * * * * * * * * * * * * * * * * * * //

dimensions      [0 3 -1 0 0 0 0];

internalField   nonuniform List<scalar> 
238548
(
1.580678e-05
-1.564257e-05
2.827256e-08
1.542162e-06
2.727863e-06
1.962362e-06
2.657994e-06
-1.57646e-06
-2.774622e-06
-2.036398e-06
-2.695389e-06
2.270569e-05
-1.493694e-05
-4.06731e-07
8.789713e-07
3.111368e-06
1.609748e-06
2.844647e-06
2.949713e-05
-1.365471e-05
-6.665999e-07
1.835652e-07
3.373667e-06
1.141351e-06
2.83125e-06
3.557172e-05
-1.230354e-05
-6.126224e-07
-4.19375e-07
3.609869e-06
7.639398e-07
2.887074e-06
4.073742e-05
-1.045885e-05
-6.163293e-07
-1.050071e-06
3.795045e-06
3.076299e-07
2.856739e-06
4.477965e-05
-8.296742e-06
-4.434123e-07
-1.616304e-06
3.767778e-06
-1.314396e-07
2.677762e-06
-5.625272e-06
-3.135307e-07
-2.214718e-06
3.677721e-06
-6.822599e-07
2.382003e-06
4.755556e-05
1.652972e-05
-2.322784e-05
4.754891e-07
-1.102876e-06
-3.366593e-06
-1.845001e-06
-3.10545e-06
2.33639e-05
-2.183563e-05
6.452314e-08
3.038834e-05
-2.021508e-05
-4.641013e-07
3.664731e-05
-1.813824e-05
-4.243184e-07
4.213442e-05
-1.550964e-05
-4.364073e-07
4.652736e-05
-1.235061e-05
-3.392466e-07
-8.511569e-06
-2.368738e-07
4.965044e-05
1.730431e-05
-3.166835e-05
8.499001e-07
-6.069137e-07
-4.043613e-06
-1.642389e-06
-3.420729e-06
2.473747e-05
-2.986409e-05
5.953143e-07
3.218142e-05
-2.768187e-05
2.28842e-08
3.898608e-05
-2.493453e-05
-8.398838e-09
4.504163e-05
-2.146176e-05
-1.034958e-07
5.003561e-05
-1.727112e-05
-7.3497e-08
-1.219164e-05
-6.737082e-08
5.37829e-05
1.859312e-05
-4.073717e-05
7.923653e-07
-1.828815e-07
-4.696939e-06
-1.53227e-06
-3.904518e-06
2.659999e-05
-3.854525e-05
6.7431e-07
3.469009e-05
-3.584085e-05
6.887477e-08
4.217105e-05
-3.245652e-05
4.100762e-08
4.898459e-05
-2.820871e-05
-6.660126e-08
5.479805e-05
-2.30338e-05
-5.091073e-08
-1.673086e-05
-5.380669e-08
5.939108e-05
2.015356e-05
-5.066971e-05
9.050733e-07
2.354349e-07
-5.49455e-06
-1.423934e-06
-4.442988e-06
2.892195e-05
-4.816295e-05
8.493721e-07
3.785743e-05
-4.494946e-05
1.731652e-07
4.626991e-05
-4.100836e-05
1.394266e-07
5.409889e-05
-3.604271e-05
5.016942e-09
6.101616e-05
-2.995797e-05
6.993279e-09
-2.248069e-05
-1.811744e-08
6.678397e-05
2.205165e-05
-6.148541e-05
9.600474e-07
6.665708e-07
-6.366377e-06
-1.384315e-06
-5.11173e-06
3.169946e-05
-5.872391e-05
9.132488e-07
4.162133e-05
-5.506824e-05
1.969623e-07
5.112461e-05
-5.067578e-05
1.642051e-07
6.017992e-05
-4.511528e-05
1.734358e-08
6.847041e-05
-3.826512e-05
1.659225e-08
-2.974466e-05
-1.681372e-08
7.575121e-05
2.415558e-05
-7.343211e-05
1.289198e-06
1.077558e-06
-7.405039e-06
-1.328011e-06
-5.842377e-06
3.475158e-05
-7.031911e-05
9.993734e-07
4.581297e-05
-6.638649e-05
2.570487e-07
5.658624e-05
-6.165207e-05
2.031459e-07
6.709412e-05
-5.566477e-05
4.169032e-08
7.704569e-05
-4.825094e-05
3.438558e-08
-3.891493e-05
-8.268378e-09
8.622417e-05
2.640888e-05
-8.636607e-05
1.440254e-06
1.573829e-06
-8.509611e-06
-1.295246e-06
-6.683838e-06
3.805734e-05
-8.301175e-05
1.044368e-06
5.032725e-05
-7.894452e-05
2.882612e-07
6.249085e-05
-7.403913e-05
2.235921e-07
7.462817e-05
-6.785535e-05
5.337349e-08
8.650386e-05
-6.016932e-05
4.267917e-08
-5.037737e-05
-6.539996e-09
9.797286e-05
2.856543e-05
-0.0001004784
1.637358e-06
2.148171e-06
-9.616588e-06
-1.162554e-06
-7.459287e-06
4.13581e-05
-9.693609e-05
1.131924e-06
5.492073e-05
-9.2838e-05
3.310256e-07
6.85667e-05
-8.79335e-05
2.485552e-07
8.245776e-05
-8.181157e-05
6.527245e-08
9.642665e-05
-7.418574e-05
4.768109e-08
-6.442994e-05
-1.530589e-08
0.0001104945
3.074367e-05
-0.000115713
1.789023e-06
2.799101e-06
-1.07894e-05
-1.013649e-06
-8.293829e-06
4.461831e-05
-0.0001120043
1.193744e-06
5.945757e-05
-0.0001080353
3.582031e-07
7.458136e-05
-0.0001033256
2.684202e-07
9.025846e-05
-9.756416e-05
7.560175e-08
0.0001064188
-9.040349e-05
5.736348e-08
-8.128638e-05
2.427663e-09
0.0001232728
3.276778e-05
-0.0001320174
1.930404e-06
3.548655e-06
-1.204847e-05
-7.873418e-07
-9.106481e-06
4.763843e-05
-0.0001281624
1.287577e-06
6.368098e-05
-0.0001244619
3.841663e-07
8.019716e-05
-0.0001201281
2.864857e-07
9.755629e-05
-0.0001150018
7.865581e-08
0.0001157871
-0.000108686
5.185763e-08
-0.0001007584
-2.285483e-08
0.000135282
3.456831e-05
-0.0001492433
1.979011e-06
4.397295e-06
-1.332929e-05
-4.627898e-07
-9.926394e-06
5.029485e-05
-0.0001452752
1.38643e-06
6.739112e-05
-0.0001419556
3.976033e-07
8.512118e-05
-0.0001381596
3.015485e-07
0.0001039259
-0.0001338894
8.303056e-08
0.0001239257
-0.0001287389
5.306158e-08
-0.000122386
-1.095231e-08
0.0001455642
3.605421e-05
-0.0001671506
1.907341e-06
5.358826e-06
-1.465225e-05
-6.392584e-08
-1.069682e-05
5.249593e-05
-0.0001631734
1.456745e-06
7.0437e-05
-0.000160294
3.975447e-07
8.913573e-05
-0.0001571714
3.132733e-07
0.000109083
-0.0001539187
8.219366e-08
0.0001304569
-0.0001501612
4.869015e-08
-0.0001456579
-2.200553e-08
0.0001537509
3.694499e-05
-0.0001855015
1.853219e-06
6.457919e-06
-1.601105e-05
4.478435e-07
-1.134172e-05
5.40742e-05
-0.0001818616
1.559139e-06
7.263257e-05
-0.0001792596
4.073757e-07
9.203461e-05
-0.0001768983
3.250649e-07
0.0001127671
-0.0001747327
8.164882e-08
0.0001350537
-0.0001724934
4.556079e-08
-0.000169988
-2.209717e-08
0.0001594058
3.769981e-05
-0.0002042287
1.69786e-06
7.541184e-06
-1.714875e-05
9.155422e-07
-1.197819e-05
5.512135e-05
-0.0002008391
1.556226e-06
7.401991e-05
-0.000198549
3.910265e-07
9.376929e-05
-0.0001969741
3.265649e-07
0.000114886
-0.0001959275
7.822656e-08
0.000137588
-0.0001952379
4.266501e-08
-0.0001947721
-2.509006e-08
0.0001623973
3.829262e-05
-0.0002232903
2.336489e-06
8.454519e-06
-1.859704e-05
1.334794e-06
-1.275938e-05
5.552899e-05
-0.0002196702
1.594988e-06
7.451146e-05
-0.0002179697
4.38501e-07
9.427804e-05
-0.0002170729
3.324259e-07
0.0001153969
-0.0002171234
7.725064e-08
0.0001380345
-0.0002179127
3.738195e-08
-0.0002194306
-2.952484e-08
0.0001627225
3.823005e-05
-0.0002420205
2.106207e-06
9.783691e-06
-1.987426e-05
2.049948e-06
-1.35651e-05
5.536147e-05
-0.000238369
1.567741e-06
7.414044e-05
-0.0002371623
4.138251e-07
9.362386e-05
-0.000236883
3.268774e-07
0.000114344
-0.0002379172
7.379116e-08
0.0001364214
-0.0002400257
3.585568e-08
-0.0002433619
-3.04793e-08
0.0001603835
3.759713e-05
-0.0002604577
1.947096e-06
1.101414e-05
-2.082602e-05
2.637394e-06
-1.393212e-05
5.456685e-05
-0.0002568484
1.509922e-06
7.296915e-05
-0.0002559467
3.82268e-07
9.193173e-05
-0.0002561547
3.092735e-07
0.000111918
-0.0002579613
5.805586e-08
0.0001329724
-0.0002610967
1.667462e-08
-0.0002659582
-4.228074e-08
0.0001556109
3.679135e-05
-0.0002785406
1.941203e-06
1.231305e-05
-2.191697e-05
3.505189e-06
-1.455062e-05
5.329882e-05
-0.0002748416
1.485887e-06
7.114302e-05
-0.0002741708
3.801392e-07
8.934012e-05
-0.000274662
3.104404e-07
0.0001082722
-0.0002769609
6.770589e-08
0.0001278614
-0.0002807249
3.913857e-08
-0.0002866021
-2.810662e-08
0.0001485337
3.569001e-05
-0.0002960526
1.738727e-06
1.359858e-05
-2.281758e-05
4.131272e-06
-1.482873e-05
5.174338e-05
-0.0002922824
1.387603e-06
6.898005e-05
-0.000291732
3.246925e-07
8.633931e-05
-0.0002922711
2.499119e-07
0.0001040705
-0.0002947146
2.273546e-08
0.0001217877
-0.0002983945
-4.75405e-08
-0.0003046052
-6.40922e-08
0.0001398548
3.445388e-05
-0.0003130191
1.734227e-06
1.485316e-05
-2.37413e-05
4.939429e-06
-1.527289e-05
4.98721e-05
-0.0003090458
1.345379e-06
6.644787e-05
-0.0003086634
3.557071e-07
8.290931e-05
-0.0003090639
3.315828e-07
9.931737e-05
-0.0003112296
1.071551e-07
0.0001150412
-0.0003142868
1.689219e-07
-0.0003193676
2.777711e-08
0.0001297763
3.290662e-05
-0.0003294881
1.418601e-06
1.617919e-05
-2.449485e-05
5.691847e-06
-1.523222e-05
4.806338e-05
-0.0003254396
1.237083e-06
6.433834e-05
-0.0003251931
2.547726e-07
8.039454e-05
-0.0003252286
1.086857e-07
9.604964e-05
-0.0003268601
-2.423924e-08
0.0001095794
-0.000327468
-3.482847e-07
-0.0003303877
-3.758026e-08
0.0001206371
3.10526e-05
1.274337e-06
1.750762e-05
-2.532031e-05
6.821672e-06
-1.559494e-05
-0.000345229
4.58032e-05
1.398317e-06
-0.0003415886
6.180267e-05
4.343931e-07
-0.0003416268
7.761112e-05
6.439428e-07
-0.0003416807
9.294657e-05
4.055549e-07
-0.0003426006
0.0001060637
1.287994e-06
-0.0003418727
4.489539e-07
-0.0003372895
0.0001125169
-6.860842e-08
-4.2534e-07
3.035917e-06
-8.438841e-07
8.49117e-09
6.866721e-08
-7.29698e-08
-7.107752e-08
-5.882296e-07
-4.480071e-07
-5.949724e-07
-2.936276e-07
-3.971002e-06
4.854745e-06
-6.233909e-07
3.119886e-07
7.862304e-08
-1.657025e-07
-1.916575e-07
-4.04386e-07
-6.372923e-06
7.541661e-06
-6.211318e-07
5.614502e-08
1.740502e-07
-1.926756e-07
-1.807738e-07
-5.093235e-07
-8.516897e-06
9.131895e-06
-5.633357e-07
6.900688e-07
2.444553e-07
-2.534577e-07
-2.234496e-07
-6.238978e-07
-1.002321e-05
1.06968e-05
1.302826e-08
2.86157e-07
2.821035e-07
-3.510555e-07
-2.799931e-07
-7.116072e-07
-1.175351e-05
1.247377e-05
-4.502313e-07
8.654847e-07
3.120694e-07
-4.241804e-07
-3.118967e-07
-7.809346e-07
-1.325701e-05
1.37378e-05
3.524439e-07
4.749571e-07
2.849043e-07
-4.182376e-07
-3.939887e-07
-8.209376e-07
-1.431647e-05
1.911765e-07
1.073408e-06
-4.657136e-07
3.359111e-07
-3.842121e-07
1.438683e-05
7.225519e-08
4.220203e-07
9.144846e-07
-3.104689e-06
8.947074e-09
7.745943e-08
-6.716333e-08
7.459572e-08
5.760333e-07
4.4314e-07
5.828925e-07
1.77749e-05
-1.771863e-05
-9.197439e-09
2.082966e-06
2.379224e-06
2.108518e-06
2.648088e-06
-2.162282e-06
-2.390165e-06
-2.152666e-06
-2.53242e-06
2.582795e-05
-1.682414e-05
-4.088119e-07
1.812345e-06
2.735766e-06
1.900443e-06
2.324652e-06
3.32889e-05
-1.547252e-05
-6.93486e-07
1.54158e-06
2.624309e-06
1.523994e-06
2.34858e-06
4.016234e-05
-1.392172e-05
-5.933078e-07
1.35975e-06
2.181259e-06
1.681727e-06
1.806175e-06
4.601548e-05
-1.189897e-05
-6.365029e-07
6.367681e-07
2.501501e-06
1.006204e-06
1.921421e-06
5.054935e-05
-9.492038e-06
-5.591695e-07
8.928096e-07
1.843052e-06
1.20197e-06
1.135934e-06
-6.445308e-06
-3.855947e-07
-1.356981e-07
1.931136e-06
3.845445e-07
1.226641e-06
5.366003e-05
2.875941e-07
4.020974e-06
6.747583e-07
-4.918718e-06
-3.556773e-07
1.567745e-07
-5.664156e-08
1.909104e-07
1.863133e-05
-2.667609e-05
5.612448e-07
-2.011871e-06
-2.894273e-06
-2.095619e-06
-2.757806e-06
2.72646e-05
-2.548139e-05
8.855725e-08
3.537541e-05
-2.368899e-05
-3.58406e-07
4.269544e-05
-2.121874e-05
-4.473467e-07
4.903329e-05
-1.814451e-05
-5.287824e-07
5.412698e-05
-1.44854e-05
-4.396053e-07
-9.977973e-06
-3.130949e-07
5.773572e-05
4.124453e-07
6.527615e-06
7.428683e-07
-7.753187e-06
-1.155296e-07
1.981624e-07
-1.961053e-07
1.837253e-07
1.967477e-05
-3.621913e-05
9.485885e-07
-2.034173e-06
-3.328677e-06
-1.941001e-06
-2.926467e-06
2.895829e-05
-3.475639e-05
5.868761e-07
3.749687e-05
-3.230746e-05
1.028086e-07
4.54358e-05
-2.905653e-05
-1.095174e-07
5.245096e-05
-2.501435e-05
-2.488072e-07
5.826639e-05
-2.012913e-05
-2.452933e-07
-1.421111e-05
-1.916396e-07
6.262383e-05
5.968234e-07
9.363376e-06
8.676251e-07
-1.058068e-05
-5.634102e-07
3.029785e-07
-2.411295e-07
2.544194e-07
2.12469e-05
-4.641239e-05
1.153668e-06
-2.131418e-06
-3.714539e-06
-2.334303e-06
-3.234626e-06
3.123471e-05
-4.485582e-05
7.860127e-07
4.045441e-05
-4.182539e-05
3.671628e-07
4.917669e-05
-3.783101e-05
9.330061e-08
5.705716e-05
-3.287016e-05
-9.126931e-08
6.383608e-05
-2.683222e-05
-1.266471e-07
-1.949013e-05
-1.246039e-07
6.918581e-05
7.576733e-07
1.223407e-05
8.71545e-07
-1.359231e-05
-7.00799e-07
3.954453e-07
-2.980481e-07
3.324312e-07
2.294199e-05
-5.740237e-05
1.366057e-06
-2.184136e-06
-4.126118e-06
-2.457085e-06
-3.645487e-06
3.395934e-05
-5.604165e-05
1.017953e-06
4.411288e-05
-5.238297e-05
5.773185e-07
5.390841e-05
-4.775535e-05
2.682944e-07
6.295603e-05
-4.1954e-05
4.136091e-08
7.101848e-05
-3.485617e-05
-3.15469e-08
-2.615776e-05
-6.774819e-08
7.773583e-05
9.278429e-07
1.518778e-05
1.081555e-06
-1.657426e-05
-1.235767e-06
5.697696e-07
-3.477445e-07
3.908677e-07
2.514035e-05
-6.936705e-05
1.492638e-06
-2.412518e-06
-4.510696e-06
-2.941696e-06
-3.84317e-06
3.723214e-05
-6.837229e-05
1.15232e-06
4.848452e-05
-6.413437e-05
6.961863e-07
5.953323e-05
-5.900449e-05
3.648105e-07
6.998835e-05
-5.24975e-05
1.058097e-07
7.964565e-05
-4.450725e-05
1.051587e-08
-3.459767e-05
-5.412982e-08
8.812286e-05
1.065624e-06
1.857886e-05
8.770494e-07
-1.994132e-05
-1.130547e-06
6.4683e-07
-4.981323e-07
4.017096e-07
2.758153e-05
-8.293356e-05
1.429451e-06
-2.412678e-06
-4.911338e-06
-3.001472e-06
-3.829408e-06
4.06975e-05
-8.18604e-05
1.371772e-06
5.334108e-05
-7.730498e-05
7.842624e-07
6.585092e-05
-7.177232e-05
4.612945e-07
7.798893e-05
-6.475653e-05
1.628908e-07
8.957155e-05
-5.610571e-05
5.027136e-08
-4.524931e-05
-3.534334e-08
0.0001002502
1.343594e-06
2.199602e-05
4.719106e-07
-2.39226e-05
-7.649453e-07
8.608614e-07
-5.094735e-07
5.247352e-07
3.033487e-05
-9.760537e-05
1.556637e-06
-2.206268e-06
-5.885448e-06
-2.876724e-06
-4.810802e-06
4.456334e-05
-9.659075e-05
1.546581e-06
5.860254e-05
-9.192285e-05
8.671922e-07
7.270227e-05
-8.618175e-05
5.335363e-07
8.67228e-05
-7.892499e-05
2.014545e-07
0.000100539
-6.995454e-05
7.548859e-08
-5.856463e-05
-3.151942e-08
0.0001138794
1.521972e-06
2.647888e-05
4.685338e-07
-2.827833e-05
-1.058918e-06
9.487609e-07
-6.514843e-07
5.706547e-07
3.272207e-05
-0.0001136387
1.561047e-06
-2.091701e-06
-6.405193e-06
-3.10578e-06
-5.009282e-06
4.83521e-05
-0.0001127725
1.68385e-06
6.393134e-05
-0.0001081033
9.323988e-07
7.974512e-05
-0.0001023454
5.985859e-07
9.579625e-05
-9.514567e-05
2.350128e-07
0.0001120329
-8.623635e-05
9.302229e-08
-7.488452e-05
-4.113667e-08
0.0001283785
1.773871e-06
3.088108e-05
2.6884e-07
-3.275686e-05
-1.2075e-06
1.119315e-06
-7.512099e-07
6.725458e-07
3.53204e-05
-0.0001309928
1.618717e-06
-2.020195e-06
-7.061247e-06
-3.199347e-06
-5.514976e-06
5.215606e-05
-0.0001302496
1.835487e-06
6.921541e-05
-0.0001258021
9.979371e-07
8.673091e-05
-0.0001202489
6.566622e-07
0.0001048507
-0.0001134559
2.661985e-07
0.0001236375
-0.0001050805
1.147862e-07
-9.447491e-05
-1.694128e-08
0.0001432475
2.040511e-06
3.554482e-05
9.213055e-08
-3.736117e-05
-1.52124e-06
1.295446e-06
-8.61636e-07
7.711966e-07
3.75881e-05
-0.0001496535
1.692758e-06
-1.903574e-06
-7.685127e-06
-3.261227e-06
-5.839398e-06
5.566758e-05
-0.0001489943
1.953038e-06
7.41233e-05
-0.000144937
1.063535e-06
9.324822e-05
-0.0001397926
7.054104e-07
0.00011331
-0.0001337239
2.850748e-07
0.0001344837
-0.0001263164
1.142435e-07
-0.0001170899
-6.394471e-08
0.0001571395
2.303968e-06
4.025888e-05
-1.921562e-07
-4.199963e-05
-1.686567e-06
1.462186e-06
-1.009784e-06
8.631503e-07
3.955323e-05
-0.0001692863
1.830247e-06
-1.719913e-06
-8.461032e-06
-3.259195e-06
-6.331451e-06
5.878905e-05
-0.0001688639
2.020462e-06
7.843442e-05
-0.0001653096
1.125069e-06
9.897084e-05
-0.0001607674
7.401679e-07
0.0001207053
-0.0001556787
3.03586e-07
0.000143935
-0.0001496125
1.195304e-07
-0.0001422118
-4.596008e-08
0.0001690923
2.591152e-06
4.533744e-05
-3.427266e-07
-4.743718e-05
-1.550337e-06
1.605059e-06
-1.165232e-06
9.618118e-07
4.129262e-05
-0.0001895921
2.067781e-06
-1.580127e-06
-9.586288e-06
-3.163092e-06
-6.817324e-06
6.145055e-05
-0.0001896441
2.079198e-06
8.198674e-05
-0.0001866475
1.199415e-06
0.0001036439
-0.0001828805
7.694515e-07
0.0001266879
-0.0001789587
3.184302e-07
0.0001515017
-0.0001744967
1.193949e-07
-0.0001692386
-5.625315e-08
0.0001785624
2.835616e-06
5.090612e-05
-3.695095e-07
-5.239858e-05
-2.502248e-06
1.718077e-06
-1.304573e-06
1.115146e-06
4.196751e-05
-0.0002099317
2.28129e-06
-1.438518e-06
-9.932073e-06
-3.353103e-06
-7.332128e-06
6.329872e-05
-0.0002114431
2.027259e-06
8.451091e-05
-0.0002086944
1.242455e-06
0.0001070125
-0.0002058334
7.766473e-07
0.0001309632
-0.000203151
3.234862e-07
0.0001568393
-0.0002004417
1.144903e-07
-0.0001974963
-5.536621e-08
0.0001851307
3.271119e-06
5.586186e-05
1.377936e-06
-5.841927e-05
-4.026443e-06
1.99115e-06
-1.3934e-06
1.337203e-06
4.312355e-05
-0.0002304386
2.504234e-06
-2.912267e-06
-9.39901e-06
-4.907567e-06
-6.20359e-06
6.468108e-05
-0.0002335422
2.098084e-06
8.616158e-05
-0.0002310794
1.295721e-06
0.0001090467
-0.0002291883
7.965825e-07
0.0001334268
-0.000227784
3.313468e-07
0.0001597795
-0.0002268656
1.141497e-07
-0.0002262853
-5.236478e-08
0.0001885954
3.47673e-06
6.251113e-05
-5.392064e-09
-6.475759e-05
-2.939072e-06
1.95678e-06
-1.639637e-06
1.397216e-06
4.35737e-05
-0.0002527673
2.003697e-06
-1.803739e-06
-9.218102e-06
-3.672713e-06
-6.217433e-06
6.483503e-05
-0.0002554513
2.24317e-06
8.668451e-05
-0.0002537407
1.250616e-06
0.0001096086
-0.0002525833
8.036878e-07
0.0001340126
-0.0002524312
3.206923e-07
0.0001602961
-0.0002532178
1.061459e-07
-0.0002549335
-5.761702e-08
0.0001889731
3.762141e-06
6.722538e-05
-2.065597e-06
-6.821564e-05
-2.506301e-06
1.998032e-06
-1.717054e-06
1.519201e-06
4.378293e-05
-0.0002741555
2.360299e-06
-1.023107e-07
-1.161656e-05
-2.840926e-06
-8.088298e-06
6.48052e-05
-0.0002771784
2.272792e-06
8.629474e-05
-0.0002761016
1.285432e-06
0.0001088641
-0.0002756337
8.081156e-07
0.0001327961
-0.000276612
3.227793e-07
0.0001584237
-0.0002789151
1.059749e-07
-0.0002827448
-5.270593e-08
0.0001862567
4.226035e-06
7.330012e-05
3.334284e-07
-7.60204e-05
-4.357879e-06
2.233785e-06
-1.71605e-06
2.001202e-06
4.326222e-05
-0.0002947957
2.480171e-06
-1.806963e-06
-1.040337e-05
-4.314862e-06
-6.62965e-06
6.400505e-05
-0.0002986196
2.208548e-06
8.495278e-05
-0.0002979495
1.2827e-06
0.0001069082
-0.0002980618
7.822107e-07
0.0001299783
-0.0002999314
3.076291e-07
0.0001544205
-0.0003034314
9.085282e-08
-0.000309027
-5.62906e-08
0.0001807175
4.516391e-06
7.920654e-05
-2.393977e-06
-8.024023e-05
-3.472418e-06
2.20264e-06
-1.89519e-06
2.076392e-06
4.219628e-05
-0.0003152472
2.413005e-06
5.814327e-07
-1.224264e-05
-2.39386e-06
-8.161009e-06
6.248376e-05
-0.0003195659
2.144917e-06
8.28209e-05
-0.0003191739
1.267574e-06
0.0001038978
-0.0003196061
7.779614e-07
0.0001257483
-0.000322038
3.240268e-07
0.0001484782
-0.0003262396
1.177638e-07
-0.0003330491
-2.527881e-08
0.0001724968
4.905605e-06
8.518417e-05
-4.529617e-07
-8.72977e-05
-5.151658e-06
2.461732e-06
-1.965037e-06
2.316005e-06
4.110889e-05
-0.0003350245
2.499539e-06
-5.064568e-07
-1.120833e-05
-3.679646e-06
-6.697946e-06
6.075526e-05
-0.0003398477
2.023328e-06
8.030362e-05
-0.0003396351
1.237632e-06
0.000100388
-0.0003401632
7.229578e-07
0.0001208347
-0.0003427701
3.08453e-07
0.0001414369
-0.0003469778
8.849361e-08
-0.0003541242
1.185566e-08
0.000162437
5.216032e-06
9.089264e-05
-2.932948e-06
-9.19118e-05
-4.135383e-06
2.583272e-06
-2.069623e-06
2.357867e-06
3.986785e-05
-0.0003543132
2.428222e-06
1.50373e-06
-1.28859e-05
-1.872149e-06
-8.018459e-06
5.859585e-05
-0.000359238
2.007537e-06
7.740027e-05
-0.0003593643
1.280677e-06
9.645405e-05
-0.0003597061
8.209095e-07
0.0001153752
-0.0003620322
4.485003e-07
0.0001335401
-0.0003652949
3.217229e-07
-0.0003714431
1.840632e-07
0.0001507022
5.534234e-06
9.696522e-05
-1.88092e-06
-9.848078e-05
-5.319726e-06
2.825904e-06
-2.137748e-06
2.493876e-06
3.779539e-05
-0.0003730843
2.403795e-06
1.572403e-06
-1.23496e-05
-1.949239e-06
-7.283101e-06
5.640855e-05
-0.0003783665
1.752532e-06
7.477307e-05
-0.0003787208
1.246962e-06
9.328904e-05
-0.0003788411
7.281022e-07
0.0001112986
-0.0003806111
5.455175e-07
0.0001272911
-0.0003819031
2.676245e-07
-0.0003849521
5.749338e-07
0.0001401883
1.295805e-05
-3.516436e-06
-9.298112e-06
2.411506e-06
0.0001130759
-0.0001156307
3.515795e-05
2.531664e-06
-0.0003906533
-7.80348e-06
2.822509e-06
-9.070658e-07
5.39056e-05
1.71734e-06
-0.0003974332
7.203281e-05
1.512921e-06
-0.0003979265
9.051731e-05
1.288798e-06
-0.0003979702
0.0001081789
1.196874e-06
-0.0003990636
0.0001226233
1.679312e-06
-0.0003967385
1.34268e-06
-0.000393533
0.0001303099
-4.133123e-07
1.596281e-07
2.66745e-06
-7.451437e-07
-1.328977e-07
-5.23907e-07
-4.364894e-07
-5.75329e-07
2.206406e-05
-7.305156e-06
-2.683247e-08
-3.997471e-07
1.195967e-06
-1.876176e-07
1.372002e-07
-3.334506e-06
-4.365621e-06
-3.42894e-06
-4.348829e-06
2.773984e-05
-6.205078e-06
-6.428739e-07
-5.741377e-07
1.369742e-06
-9.124728e-08
4.677644e-07
3.343782e-05
-6.232505e-06
-1.506838e-07
-1.507348e-06
1.918349e-06
-2.767712e-07
5.50871e-07
3.809664e-05
-5.181091e-06
-3.683302e-07
-1.249926e-06
1.85806e-06
1.139149e-07
1.684066e-07
4.186416e-05
-4.134984e-06
-2.734951e-07
-2.096237e-06
2.481448e-06
-3.307819e-07
5.863588e-07
-2.792642e-06
-1.998197e-07
-1.864942e-06
2.176757e-06
-7.476908e-08
3.186528e-07
4.430082e-05
4.1393e-07
-1.796752e-07
7.922656e-07
-2.68876e-06
1.246906e-07
5.273081e-07
4.36129e-07
5.741e-07
1.668282e-05
-1.641223e-05
4.425904e-09
1.86355e-06
2.198054e-06
1.853051e-06
2.250377e-06
-1.959365e-06
-2.260648e-06
-1.913746e-06
-2.315434e-06
2.524254e-05
-1.595769e-05
-3.159655e-07
3.317259e-05
-1.438243e-05
-4.461878e-07
4.000379e-05
-1.32698e-05
-3.872444e-07
4.58557e-05
-1.125918e-05
-4.103954e-07
5.045421e-05
-8.930908e-06
-3.617787e-07
-6.076761e-06
-2.449699e-07
5.359763e-05
8.212406e-06
-2.316642e-05
5.090873e-08
3.723953e-07
3.298381e-07
-1.258391e-06
-2.305874e-07
3.370021e-06
4.441571e-06
3.458827e-06
4.419352e-06
1.769858e-05
-2.5739e-05
4.018981e-07
2.653047e-05
-2.47553e-05
5.434266e-08
3.506237e-05
-2.307396e-05
-1.98751e-07
4.250049e-05
-2.085003e-05
-3.052166e-07
4.893651e-05
-1.783925e-05
-3.847087e-07
5.410087e-05
-1.421228e-05
-3.226554e-07
-9.804875e-06
-2.338453e-07
5.774979e-05
8.301608e-06
-3.075732e-05
7.820469e-07
5.986903e-07
-6.725002e-08
-1.585167e-06
-4.390802e-07
1.843258e-05
-3.55417e-05
6.203633e-07
2.831763e-05
-3.442426e-05
3.708491e-07
3.737385e-05
-3.212128e-05
9.401688e-08
4.556614e-05
-2.901549e-05
-1.362205e-07
5.273873e-05
-2.498952e-05
-2.710825e-07
5.86575e-05
-2.0109e-05
-2.672142e-07
-1.419923e-05
-2.058539e-07
6.306599e-05
9.513876e-06
-3.981096e-05
3.899315e-07
1.50423e-06
2.289966e-07
-1.997228e-06
-5.862634e-07
2.017949e-05
-4.580295e-05
7.493883e-07
3.063791e-05
-4.464231e-05
5.457748e-07
4.039976e-05
-4.189194e-05
3.761159e-07
4.939875e-05
-3.800903e-05
8.793468e-08
5.747878e-05
-3.305211e-05
-1.085282e-07
6.438091e-05
-2.69795e-05
-1.582748e-07
-1.959631e-05
-1.453484e-07
6.97989e-05
1.018817e-05
-4.955586e-05
5.136315e-07
1.966109e-06
2.544121e-07
-2.410939e-06
-7.6646e-07
2.18759e-05
-5.703709e-05
9.125689e-07
3.335249e-05
-5.585087e-05
7.501045e-07
4.409389e-05
-5.265448e-05
5.986829e-07
5.419158e-05
-4.811846e-05
2.803105e-07
6.345921e-05
-4.230996e-05
3.171321e-08
7.166497e-05
-3.515265e-05
-6.393967e-08
-2.637786e-05
-9.466054e-08
7.847349e-05
1.139094e-05
-6.019384e-05
5.241652e-07
2.677226e-06
3.427712e-07
-3.322531e-06
-9.745378e-07
2.409129e-05
-6.92714e-05
1.026878e-06
3.661572e-05
-6.811622e-05
8.935911e-07
4.849464e-05
-6.457981e-05
7.42864e-07
5.986203e-05
-5.952234e-05
4.014733e-07
7.055959e-05
-5.301382e-05
1.123671e-07
8.037875e-05
-4.494503e-05
-1.615076e-08
-3.493479e-05
-8.120121e-08
8.896289e-05
1.252777e-05
-7.163277e-05
6.248866e-07
3.059679e-06
3.837892e-07
-4.07481e-06
-1.082182e-06
2.637764e-05
-8.268581e-05
9.942004e-07
4.015482e-05
-8.15945e-05
1.073197e-06
5.336927e-05
-7.786936e-05
8.596921e-07
6.623396e-05
-7.243726e-05
5.119011e-07
7.862832e-05
-6.542734e-05
1.822657e-07
9.039567e-05
-5.668905e-05
2.714908e-08
-4.572621e-05
-6.667212e-08
0.0001012187
1.390444e-05
-8.38884e-05
8.993426e-07
2.869491e-06
5.529914e-07
-4.72832e-06
-1.242279e-06
2.893501e-05
-9.724907e-05
1.08971e-06
4.398889e-05
-9.634481e-05
1.243353e-06
5.863079e-05
-9.260813e-05
9.643817e-07
7.31285e-05
-8.700381e-05
6.026034e-07
8.742666e-05
-7.975958e-05
2.358211e-07
0.0001014532
-7.069889e-05
5.904473e-08
-5.919765e-05
-6.313236e-08
0.0001149562
1.497574e-05
-9.731683e-05
9.210833e-07
3.584999e-06
7.436736e-07
-5.515049e-06
-1.281784e-06
3.132652e-05
-0.0001131141
1.075418e-06
4.781153e-05
-0.0001125016
1.355915e-06
6.398053e-05
-0.0001088949
1.050537e-06
8.022004e-05
-0.0001033276
6.832302e-07
9.656291e-05
-9.615234e-05
2.851989e-07
0.0001130257
-8.715385e-05
8.543043e-08
-7.568952e-05
-6.905664e-08
0.0001295459
1.612374e-05
-0.0001117699
1.052964e-06
4.112041e-06
9.376271e-07
-6.311158e-06
-1.462083e-06
3.37308e-05
-0.0001302082
1.106208e-06
5.158926e-05
-0.0001299996
1.475445e-06
6.926198e-05
-0.0001267008
1.13134e-06
8.724791e-05
-0.0001214105
7.538817e-07
0.0001056851
-0.0001146533
3.302586e-07
0.0001247258
-0.0001061964
1.170176e-07
-9.549276e-05
-4.228123e-08
0.0001445542
1.708056e-05
-0.0001271802
9.843553e-07
4.878543e-06
1.170728e-06
-7.093873e-06
-1.609803e-06
3.590916e-05
-0.0001484903
1.14633e-06
5.507324e-05
-0.0001487741
1.56368e-06
7.416914e-05
-0.0001459415
1.2087e-06
9.379714e-05
-0.0001411455
8.128252e-07
0.0001141889
-0.0001351225
3.627469e-07
0.000135622
-0.0001276416
1.26391e-07
-0.0001182961
-7.471188e-08
0.0001584367
1.794091e-05
-0.0001432179
7.689504e-07
5.57972e-06
1.295994e-06
-7.744615e-06
-1.803303e-06
3.784276e-05
-0.0001677849
1.223356e-06
5.813667e-05
-0.0001686449
1.597646e-06
7.848543e-05
-0.0001664314
1.266535e-06
9.955138e-05
-0.000162321
8.499422e-07
0.0001216443
-0.0001572983
3.867469e-07
0.0001451539
-0.0001511676
1.363874e-07
-0.0001436518
-5.771707e-08
0.000170521
1.864682e-05
-0.0001600173
9.697039e-07
6.020619e-06
8.907698e-07
-8.033309e-06
-1.695086e-06
3.941909e-05
-0.0001878835
1.394137e-06
6.066276e-05
-0.0001894409
1.631778e-06
8.20198e-05
-0.0001879231
1.334407e-06
0.0001042376
-0.0001846509
8.821744e-07
0.0001276715
-0.0001808174
4.03993e-07
0.0001527897
-0.0001763039
1.375789e-07
-0.0001709335
-6.472348e-08
0.0001800806
1.855493e-05
-0.000178296
8.558731e-07
7.422936e-06
1.417207e-06
-8.477398e-06
-1.494745e-06
4.025584e-05
-0.0002087339
1.4312e-06
6.242078e-05
-0.0002111088
1.530592e-06
8.456253e-05
-0.0002101734
1.351313e-06
0.0001076228
-0.0002078189
8.846295e-07
0.0001319879
-0.000205263
4.043356e-07
0.00015818
-0.0002025091
1.281078e-07
-0.0001994676
-6.800293e-08
0.0001867263
1.922941e-05
-0.0001964003
9.621393e-07
9.562642e-06
1.617299e-06
-1.092125e-05
-2.345571e-06
4.122251e-05
-0.0002298747
1.652204e-06
6.365677e-05
-0.0002330647
1.620073e-06
8.618104e-05
-0.0002328024
1.400873e-06
0.0001096526
-0.000231396
9.025904e-07
0.0001344722
-0.0002301572
4.061978e-07
0.0001611621
-0.0002292072
1.223073e-07
-0.0002285397
-7.11885e-08
0.000190254
1.962934e-05
-0.0002140249
6.669914e-07
9.639356e-06
1.708524e-06
-1.15057e-05
-2.513812e-06
4.162614e-05
-0.0002511688
1.301462e-06
6.411038e-05
-0.0002550071
1.701745e-06
8.672711e-05
-0.0002555417
1.373553e-06
0.0001102483
-0.0002550119
8.986061e-07
0.0001350731
-0.0002550504
3.894763e-07
0.0001616947
-0.0002558255
1.034894e-07
-0.0002574727
-8.49228e-08
0.0001906543
1.964979e-05
-0.0002316224
1.260141e-06
9.072818e-06
6.325795e-07
-1.125443e-05
-1.762956e-06
4.156569e-05
-0.0002722524
1.528107e-06
6.389098e-05
-0.0002767909
1.731515e-06
8.628488e-05
-0.0002780394
1.389489e-06
0.0001094784
-0.0002782932
8.963993e-07
0.000133843
-0.0002794727
3.809167e-07
0.0001598151
-0.0002817866
9.492043e-08
-0.0002855513
-8.945707e-08
0.0001879314
1.926698e-05
-0.0002492524
1.253131e-06
1.179609e-05
2.006037e-06
-1.354841e-05
-3.143766e-06
4.094242e-05
-0.0002930572
1.609997e-06
6.296308e-05
-0.0002982614
1.658724e-06
8.491828e-05
-0.0003000681
1.35653e-06
0.0001074967
-0.0003009435
8.542473e-07
0.0001310044
-0.0003030197
3.471512e-07
0.0001557855
-0.0003065382
6.196565e-08
-0.0003120721
-1.074986e-07
0.0001823569
1.887476e-05
-0.0002664748
1.064725e-06
1.136921e-05
1.765811e-06
-1.321002e-05
-2.641667e-06
4.008119e-05
-0.000313402
1.551412e-06
6.151581e-05
-0.0003191611
1.610192e-06
8.280062e-05
-0.0003214212
1.336087e-06
0.0001044705
-0.0003226763
8.413236e-07
0.0001267393
-0.000325322
3.579097e-07
0.0001497885
-0.0003295563
8.640263e-08
-0.0003362985
-7.622019e-08
0.000174067
1.825244e-05
-0.0002830998
9.936671e-07
1.382815e-05
2.31945e-06
-1.536858e-05
-3.400141e-06
3.891429e-05
-0.0003331362
1.572214e-06
5.970286e-05
-0.000339408
1.481808e-06
8.026406e-05
-0.0003419983
1.253785e-06
0.000100944
-0.0003433799
7.46854e-07
0.0001218027
-0.000346175
3.030743e-07
0.0001427068
-0.0003503998
2.872794e-08
-0.0003574495
-6.515914e-08
0.000163934
1.765736e-05
-0.0002988005
1.006429e-06
1.336013e-05
2.222906e-06
-1.525349e-05
-3.292437e-06
3.757115e-05
-0.000352156
1.534055e-06
5.758824e-05
-0.0003588913
1.473821e-06
7.73549e-05
-0.0003617961
1.312043e-06
9.695788e-05
-0.000363026
8.646113e-07
0.0001162499
-0.0003654983
4.803326e-07
0.0001346769
-0.000368799
2.938637e-07
-0.0003748265
1.739994e-07
0.0001520651
1.653819e-05
-0.0003144542
4.54892e-07
1.533962e-05
2.968952e-06
-1.609393e-05
-3.554127e-06
3.594336e-05
-0.0003706122
1.455006e-06
5.545489e-05
-0.0003778696
1.21942e-06
7.482822e-05
-0.0003811211
1.198792e-06
9.389147e-05
-0.0003820759
7.150168e-07
0.0001122571
-0.0003838305
5.124989e-07
0.0001284417
-0.0003849822
2.668561e-07
-0.0003878155
5.158081e-07
0.0001414889
1.502614e-05
7.099639e-08
-0.0003302804
-1.531169e-05
-2.819161e-06
1.59894e-05
2.870697e-06
3.389773e-05
1.523198e-06
-0.0003884755
5.298449e-05
1.248088e-06
-0.0003964873
7.208651e-05
1.53148e-06
-0.0004002415
9.092044e-05
1.369776e-06
-0.0004009903
0.0001087426
1.329741e-06
-0.0004017851
0.0001233142
1.643312e-06
-0.0003995181
1.625419e-06
-0.0003961012
0.0001313172
-4.279844e-07
4.623266e-08
2.660075e-06
-6.914129e-07
-2.207688e-08
-5.545614e-07
-4.380916e-07
-5.721704e-07
2.266483e-05
-6.830859e-06
2.125559e-08
-3.525703e-06
-4.423432e-06
-3.520165e-06
-4.412785e-06
2.796499e-05
-5.762299e-06
-1.808074e-07
3.379679e-05
-5.917373e-06
-6.521251e-08
3.847445e-05
-4.923752e-06
-1.22363e-07
4.225132e-05
-3.967261e-06
-8.31971e-08
-2.640475e-06