/*--------------------------------*- C++ -*----------------------------------*\
  =========                 |
  \\      /  F ield         | OpenFOAM: The Open Source CFD Toolbox
   \\    /   O peration     | Website:  https://openfoam.org
    \\  /    A nd           | Version:  7
     \\/     M anipulation  |
\*---------------------------------------------------------------------------*/
FoamFile
{
    version     2.0;
    format      ascii;
    class       volVectorField;
    location    "0.07";
    object      U;
}
// * * * * * * * * * * * * * * * * * * * * * * * * * * * * * * * * * * * * * //

dimensions      [0 1 -1 0 0 0 0];

internalField   nonuniform List<vector> 
80136
(
(0.0003296175 -0.0003209817 7.940362e-07)
(0.0005178919 -0.0003149575 -1.724745e-07)
(0.0007158615 -0.0002827725 -2.652266e-06)
(0.0008908695 -0.0002591742 -2.384487e-06)
(0.001047087 -0.0002173963 -3.129078e-06)
(0.001173449 -0.0001725589 -2.112423e-08)
(0.001266763 -0.0001156438 -5.419252e-07)
(0.0003542637 -0.0005173115 -7.896304e-07)
(0.0005447137 -0.0004968973 3.478346e-07)
(0.0007558608 -0.0004628338 -7.244472e-06)
(0.0009412628 -0.0004152707 -4.083583e-06)
(0.001108997 -0.0003553283 -3.736707e-06)
(0.001248355 -0.0002817839 -2.288751e-06)
(0.001354523 -0.0001919266 -1.548404e-06)
(0.000363322 -0.0007448239 1.957953e-06)
(0.0005816305 -0.0007185614 7.16467e-06)
(0.0008042768 -0.0006695079 -9.244172e-07)
(0.001006532 -0.0006046331 1.898955e-06)
(0.001192225 -0.0005183936 8.275406e-07)
(0.001348692 -0.0004141683 1.547239e-06)
(0.001473654 -0.0002877518 9.09433e-07)
(0.0003905219 -0.0009797343 -4.732095e-06)
(0.0006273527 -0.0009496104 5.269359e-06)
(0.0008695166 -0.0008881555 -3.974441e-06)
(0.001092017 -0.0008052887 -1.495161e-07)
(0.001299442 -0.0006972638 -8.280069e-07)
(0.001479207 -0.0005644057 1.044701e-07)
(0.001628902 -0.0004027856 -7.813231e-08)
(0.0004218052 -0.001240572 -5.365461e-06)
(0.0006822201 -0.00120711 6.873803e-06)
(0.0009482271 -0.001133484 -3.764766e-06)
(0.001197186 -0.001035027 4.336461e-07)
(0.001433179 -0.0009055036 -4.904327e-07)
(0.001643468 -0.0007448797 4.775992e-07)
(0.001826175 -0.0005480122 2.061509e-07)
(0.000461962 -0.001520979 -6.723525e-06)
(0.0007466033 -0.001488429 6.737014e-06)
(0.001041279 -0.001403147 -4.636161e-06)
(0.001319655 -0.001291879 6.025368e-08)
(0.001589479 -0.00114414 -8.676477e-07)
(0.001836746 -0.0009595488 2.704576e-07)
(0.002060973 -0.0007306774 3.669248e-08)
(0.0005119707 -0.00183206 2.102499e-06)
(0.0008147134 -0.001798883 6.681277e-06)
(0.001144493 -0.001705926 -4.139688e-06)
(0.001455773 -0.001584886 2.033107e-07)
(0.001765271 -0.001422794 -7.743295e-07)
(0.002056787 -0.001218666 3.374157e-07)
(0.002331121 -0.0009621434 5.805082e-08)
(0.0005603786 -0.002170675 4.149042e-06)
(0.0008903468 -0.002137747 5.777334e-06)
(0.001255003 -0.00204228 -4.278194e-06)
(0.001602317 -0.001915653 5.321287e-08)
(0.001955394 -0.001745263 -8.21327e-07)
(0.00229717 -0.001529098 3.211482e-07)
(0.002630757 -0.001253571 8.191145e-08)
(0.0006042834 -0.002538676 8.724245e-06)
(0.0009649104 -0.002510349 6.171347e-06)
(0.001366312 -0.002415707 -4.08826e-06)
(0.001752294 -0.00228885 7.723185e-08)
(0.002151503 -0.002117227 -8.302557e-07)
(0.002548233 -0.001897868 3.315439e-07)
(0.002945491 -0.001615364 -1.074606e-07)
(0.0006506514 -0.002939661 1.11247e-05)
(0.001038469 -0.002917006 5.802889e-06)
(0.001476239 -0.002826892 -4.244026e-06)
(0.001900296 -0.00270503 -2.138722e-08)
(0.002346039 -0.002540312 -8.243746e-07)
(0.00279881 -0.002328457 4.665256e-07)
(0.003264795 -0.002055007 3.11909e-07)
(0.0006934356 -0.003369691 1.291117e-05)
(0.001106882 -0.003354408 6.296377e-06)
(0.001578036 -0.003274211 -4.476237e-06)
(0.002038395 -0.00316329 -7.211292e-08)
(0.002527753 -0.00301433 -9.330309e-07)
(0.003033325 -0.002822053 3.611591e-07)
(0.00356435 -0.002575945 1.126395e-07)
(0.0007311395 -0.003828632 1.114797e-05)
(0.001167864 -0.003821883 7.359888e-06)
(0.001667136 -0.003754716 -4.95425e-06)
(0.002159743 -0.003659599 -9.423416e-08)
(0.002686981 -0.003533482 -9.748001e-07)
(0.003236998 -0.003370809 3.45744e-07)
(0.003825144 -0.003165231 3.841035e-07)
(0.0007608343 -0.004308951 5.529401e-06)
(0.001219521 -0.004311982 7.931642e-06)
(0.001740144 -0.004261962 -5.832008e-06)
(0.002259255 -0.004187371 -1.742087e-07)
(0.002816297 -0.004089831 -1.150667e-06)
(0.003401415 -0.003964782 2.14163e-07)
(0.004033237 -0.003808705 1.030241e-07)
(0.000764571 -0.004804202 -6.635004e-09)
(0.001259144 -0.004825796 1.049925e-05)
(0.001791626 -0.004790836 -6.269558e-06)
(0.002331582 -0.004739837 -6.888394e-08)
(0.002909384 -0.004674171 -1.214171e-06)
(0.003518008 -0.004591811 7.913837e-08)
(0.004179112 -0.00449178 1.175093e-07)
(0.0007808402 -0.005310016 -8.288561e-06)
(0.001284043 -0.005357134 9.550664e-06)
(0.001826062 -0.005332554 -7.334097e-06)
(0.002375718 -0.005307467 -2.654421e-07)
(0.002964195 -0.005274843 -1.425607e-06)
(0.00358373 -0.00523727 4.293588e-09)
(0.004258153 -0.005195372 -1.216459e-07)
(0.0008139064 -0.005828004 1.564778e-05)
(0.001289543 -0.005887666 9.885049e-06)
(0.001841344 -0.005881047 -5.815632e-06)
(0.002389187 -0.005880338 -1.565217e-07)
(0.002979514 -0.005881307 -1.369075e-06)
(0.003597439 -0.005888239 -2.22696e-07)
(0.004270067 -0.005904582 -1.66205e-07)
(0.0008069014 -0.006344661 5.618648e-06)
(0.001289473 -0.006412746 8.436525e-06)
(0.001833511 -0.006428358 -6.566304e-06)
(0.002375436 -0.006448758 -4.162935e-07)
(0.002956297 -0.006481271 -1.561393e-06)
(0.003560449 -0.006528836 -2.041067e-07)
(0.004215427 -0.006600089 -4.319935e-07)
(0.0007861139 -0.006852346 -1.844215e-06)
(0.001273732 -0.006934898 7.622361e-06)
(0.001805492 -0.006965685 -7.525921e-06)
(0.002336331 -0.007006082 -8.569273e-07)
(0.002899478 -0.007065952 -1.889173e-06)
(0.003478651 -0.007149325 -8.36437e-07)
(0.004100989 -0.007269637 -7.423248e-07)
(0.0007689516 -0.007349555 1.987404e-07)
(0.001245645 -0.007446509 7.942911e-06)
(0.001762516 -0.007488728 -7.369164e-06)
(0.002275299 -0.007542298 -6.750067e-07)
(0.002813142 -0.007621315 -1.951023e-06)
(0.003356809 -0.007727382 -4.088147e-07)
(0.0039317 -0.00788532 -9.793497e-07)
(0.0007397771 -0.007837788 -6.452493e-06)
(0.001212148 -0.007943497 6.519413e-06)
(0.00170992 -0.007995049 -8.741808e-06)
(0.002203905 -0.008058316 -2.157745e-06)
(0.002714519 -0.008148908 -3.434612e-06)
(0.003214685 -0.008270533 -3.357825e-06)
(0.003728552 -0.008448994 -2.774925e-06)
(0.0007162079 -0.008305191 -4.999148e-06)
(0.001168584 -0.008421141 6.188615e-06)
(0.001647925 -0.008479509 -8.206055e-06)
(0.002121611 -0.008539374 -7.289985e-07)
(0.002601043 -0.008628807 -2.581791e-06)
(0.003056755 -0.008727082 8.262962e-07)
(0.003500778 -0.00890449 -2.157303e-06)
(0.0006719448 -0.008761884 -1.31404e-05)
(0.001124841 -0.008882931 5.00302e-06)
(0.001591847 -0.008950114 -1.146487e-05)
(0.002054725 -0.009013093 -7.612254e-06)
(0.002526815 -0.009087769 -9.404048e-06)
(0.002938976 -0.009180062 -1.72013e-05)
(0.003310147 -0.009289034 -1.093181e-05)
(0.0006182357 -0.00920203 -1.754143e-05)
(0.001071757 -0.009337275 9.946321e-06)
(0.001517888 -0.009410456 -8.465906e-06)
(0.001983949 -0.009448012 2.520047e-06)
(0.002433905 -0.009511519 -3.645801e-06)
(0.002855295 -0.009455733 1.725384e-05)
(0.003181047 -0.009520409 -6.423371e-06)
(0.0002863877 -3.541141e-05 2.202242e-05)
(0.0004941479 -2.513993e-05 5.35206e-05)
(0.0008299917 -4.181522e-05 2.437449e-05)
(0.001029124 -4.107952e-05 6.848312e-05)
(0.001218951 -1.457739e-05 4.680923e-05)
(0.001435188 -3.942279e-05 6.843447e-05)
(0.001590354 -1.068354e-05 5.019079e-05)
(0.001663564 -1.898007e-05 7.740462e-05)
(4.132033e-05 -0.0002877138 -2.207315e-05)
(0.0003341655 -0.0003265091 -6.153753e-08)
(0.0005340455 -0.0003040365 1.057707e-06)
(0.0007231022 -0.00026981 -3.68922e-06)
(0.0008982996 -0.0002465644 -2.674005e-07)
(0.001058315 -0.0002102409 -3.222696e-06)
(0.001184671 -0.0001676413 -2.589018e-06)
(0.001278903 -0.0001129282 -1.909733e-06)
(2.481632e-05 -0.0004908328 -6.388822e-05)
(0.000340562 -0.0005378342 4.196976e-07)
(0.0005562729 -0.0005067547 1.435219e-06)
(0.0007553216 -0.0004745004 -4.431878e-06)
(0.0009447792 -0.0004239772 -2.399179e-06)
(0.001110187 -0.0003619153 -3.977554e-06)
(0.001249547 -0.0002886513 -2.782299e-06)
(0.001355029 -0.0001962212 -2.004619e-06)
(4.417654e-05 -0.0008468177 -3.59379e-05)
(0.0003508505 -0.0007616331 5.26418e-06)
(0.0005953167 -0.000718904 6.637459e-06)
(0.0008035943 -0.0006700269 8.669846e-07)
(0.001009198 -0.0006038296 1.850664e-06)
(0.001192361 -0.0005180695 -2.063015e-07)
(0.001349222 -0.0004137629 1.501605e-07)
(0.001473785 -0.0002874529 -1.900369e-07)
(5.697215e-05 -0.00120244 -4.789602e-05)
(0.0003754699 -0.001001581 3.527576e-06)
(0.0006456058 -0.0009521179 5.394879e-06)
(0.0008688906 -0.0008921154 4.909048e-07)
(0.001096115 -0.0008076016 1.484836e-06)
(0.001300348 -0.0006991698 -4.208495e-07)
(0.001480674 -0.0005658234 1.655555e-07)
(0.001630333 -0.0004035504 -2.130699e-07)
(6.133564e-05 -0.001552949 -5.127629e-05)
(0.0003987623 -0.001261144 5.517957e-06)
(0.0007027116 -0.001207925 7.994745e-06)
(0.0009469187 -0.001135296 2.29228e-06)
(0.001201479 -0.001035718 3.250614e-06)
(0.001434025 -0.0009061436 9.874671e-07)
(0.001645065 -0.0007450457 1.455674e-06)
(0.001827973 -0.0005478815 6.533898e-07)
(7.967565e-05 -0.001854242 -0.0001088057)
(0.0004380617 -0.001536774 4.534795e-06)
(0.0007695107 -0.001491127 7.817918e-06)
(0.001040102 -0.001404981 2.231217e-06)
(0.001324535 -0.00129328 3.427459e-06)
(0.00159065 -0.0011453 1.0757e-06)
(0.001838766 -0.0009601627 1.674238e-06)
(0.00206351 -0.000730806 7.623868e-07)
(7.815354e-05 -0.002279572 -8.964164e-05)
(0.0004987483 -0.001848319 3.608055e-06)
(0.0008323837 -0.001802672 9.466848e-06)
(0.00114383 -0.001707353 2.586669e-06)
(0.001460355 -0.001586374 4.161209e-06)
(0.001766558 -0.00142397 1.527476e-06)
(0.002059044 -0.001219283 2.240004e-06)
(0.002334042 -0.0009622117 1.228262e-06)
(7.773876e-05 -0.002705861 -0.0001004025)
(0.0005563851 -0.00219507 3.132554e-06)
(0.0009081526 -0.002141461 9.978867e-06)
(0.001255487 -0.002044286 2.535152e-06)
(0.001607056 -0.001917558 4.439976e-06)
(0.001957007 -0.001746847 1.580289e-06)
(0.002299781 -0.001530161 2.454612e-06)
(0.002634404 -0.001254043 1.326883e-06)
(9.787819e-05 -0.003224163 -0.0001039595)
(0.0005997044 -0.002567034 2.645326e-06)
(0.0009803862 -0.002513816 1.078397e-05)
(0.001366831 -0.002418035 2.495439e-06)
(0.001756894 -0.002291027 4.762234e-06)
(0.002153143 -0.002119106 1.614855e-06)
(0.002550986 -0.001899311 2.463759e-06)
(0.002949083 -0.001615973 1.080681e-06)
(0.0001029893 -0.003731147 -0.0001244325)
(0.0006523294 -0.002976009 1.73837e-06)
(0.001054061 -0.002920632 1.160566e-05)
(0.001477401 -0.002829915 2.371636e-06)
(0.001905096 -0.002707588 4.994312e-06)
(0.002347899 -0.002542636 1.61269e-06)
(0.00280203 -0.002330424 2.566323e-06)
(0.003269184 -0.002056382 1.491061e-06)
(0.0001053551 -0.00425597 -0.0001528278)
(0.000692717 -0.003414984 1.69309e-06)
(0.001122968 -0.00335687 1.251953e-05)
(0.001579053 -0.003277809 2.423719e-06)
(0.00204333 -0.003166085 5.177471e-06)
(0.002529526 -0.003017055 1.445262e-06)
(0.003036425 -0.002824554 2.177951e-06)
(0.003568118 -0.002578039 2.566838e-07)
(9.436748e-05 -0.004773535 -0.000182866)
(0.0007203731 -0.003885701 2.147469e-06)
(0.00118726 -0.003824466 1.297633e-05)
(0.001667469 -0.003759206 2.508504e-06)
(0.002165097 -0.003662737 5.286781e-06)
(0.002688739 -0.003536615 1.381555e-06)
(0.003240351 -0.003373705 2.071735e-06)
(0.003829146 -0.003167845 5.090986e-07)
(0.0001010914 -0.005406825 -0.0001856898)
(0.0007446571 -0.004372375 3.356995e-06)
(0.001244993 -0.004313317 1.356909e-05)
(0.001740192 -0.004266678 2.834614e-06)
(0.002265287 -0.004190693 5.430304e-06)
(0.002817999 -0.004093317 1.35603e-06)
(0.003404648 -0.003968166 1.852619e-06)
(0.004036708 -0.003811968 1.623011e-07)
(0.000101905 -0.006064652 -0.000217131)
(0.0007264749 -0.004876994 7.977761e-06)
(0.001288136 -0.004828634 1.399749e-05)
(0.001789656 -0.004795986 3.175724e-06)
(0.002337971 -0.00474356 5.535655e-06)
(0.002910848 -0.004678007 1.253846e-06)
(0.003521302 -0.004595511 1.7468e-06)
(0.004182512 -0.004495432 7.925966e-08)
(0.0001744222 -0.006678524 -0.0003208483)
(0.0007492578 -0.005361934 7.452732e-06)
(0.001320513 -0.005361905 1.384865e-05)
(0.001824982 -0.00533612 3.28926e-06)
(0.002382934 -0.005311505 5.608549e-06)
(0.002965767 -0.005278909 1.287914e-06)
(0.003586971 -0.005241451 1.621292e-06)
(0.0042613 -0.005199534 1.338593e-07)
(0.0001227955 -0.00746454 -0.0002312766)
(0.0007972946 -0.005886436 5.072215e-06)
(0.001308057 -0.005893065 1.600173e-05)
(0.001839912 -0.005884599 3.00377e-06)
(0.002395034 -0.005884768 5.770293e-06)
(0.002980756 -0.005885724 1.069643e-06)
(0.003600552 -0.00589275 1.549829e-06)
(0.004273046 -0.005909238 -1.029784e-07)
(1.25201e-06 -0.007795513 -0.000270315)
(0.0007917137 -0.006438985 7.69908e-06)
(0.001315935 -0.006419548 1.602112e-05)
(0.001833302 -0.006434529 3.305504e-06)
(0.002381808 -0.006454018 5.826453e-06)
(0.002957774 -0.006486419 1.154452e-06)
(0.003563447 -0.00653415 1.435626e-06)
(0.004218218 -0.006605456 3.2113e-08)
(0.0001361921 -0.008811405 -0.0003107757)
(0.0007780723 -0.006938111 9.160228e-06)
(0.001305454 -0.00694001 1.497901e-05)
(0.001805627 -0.006971265 3.244787e-06)
(0.002343268 -0.007011254 5.458305e-06)
(0.00290074 -0.007071347 7.501904e-07)
(0.003481592 -0.007154671 1.116439e-06)
(0.004103606 -0.007275504 -3.747902e-07)
(2.9326e-05 -0.009223045 -0.0003391842)
(0.0007546131 -0.00744357 9.142751e-06)
(0.001275315 -0.007452389 1.448989e-05)
(0.001762364 -0.007495009 3.452365e-06)
(0.002281976 -0.007548768 5.547071e-06)
(0.002814574 -0.007628118 1.156134e-06)
(0.003359429 -0.007735228 1.442339e-06)
(0.003933803 -0.007893014 3.856389e-08)
(0.0001218225 -0.01014853 -0.0003531163)
(0.0007303441 -0.007935205 1.02084e-05)
(0.001245724 -0.007950181 1.264217e-05)
(0.001709634 -0.008001245 2.846638e-06)
(0.002210493 -0.008063914 4.131675e-06)
(0.002714563 -0.008155159 9.621496e-08)
(0.003216878 -0.00827529 -4.077427e-07)
(0.00373092 -0.008456364 -6.757863e-07)
(4.941649e-05 -0.01059065 -0.00038432)
(0.000718577 -0.008410163 1.037009e-05)
(0.001200767 -0.008427851 1.272863e-05)
(0.001649074 -0.008487817 4.066299e-06)
(0.002128437 -0.008550356 5.958077e-06)
(0.002603498 -0.008640363 1.973861e-06)
(0.003058408 -0.008745986 3.668548e-06)
(0.003500438 -0.008919225 4.011328e-07)
(9.766989e-05 -0.01148213 -0.0003528876)
(0.0006526257 -0.008873463 1.027861e-05)
(0.001158707 -0.008884939 8.865588e-06)
(0.00158755 -0.008956364 2.166622e-06)
(0.002058289 -0.009016236 4.712776e-07)
(0.002519162 -0.009094982 -6.564057e-07)
(0.002938114 -0.00917153 -7.88178e-06)
(0.003315063 -0.009300216 -2.512381e-07)
(0.001709967 -0.01191064 6.305968e-05)
(0.0005666206 -0.009325809 1.598208e-05)
(0.001108141 -0.009349139 1.096042e-05)
(0.001518163 -0.009424259 6.338148e-06)
(0.001990062 -0.009476474 1.079177e-05)
(0.002448291 -0.009539493 5.123064e-06)
(0.002853209 -0.009538443 2.175676e-05)
(0.003163636 -0.009560807 -1.525617e-06)
(0.0002748075 -3.159276e-05 -1.987761e-05)
(0.0005589743 -9.233394e-05 6.992991e-06)
(0.0006889062 -7.552756e-05 -2.370503e-05)
(0.0008803119 -8.22378e-05 3.332347e-07)
(0.001018012 -6.663199e-05 -1.221363e-05)
(0.001143833 -5.346914e-05 -1.001084e-05)
(0.001232774 -3.603316e-05 -6.723677e-06)
(3.185866e-05 -0.0002762459 1.97554e-05)
(0.0003128376 -0.0003028477 -5.374886e-07)
(0.0005176541 -0.0002998586 -1.23972e-05)
(0.0007226435 -0.0002514141 -1.591742e-05)
(0.0009015343 -0.0002392596 -1.202176e-05)
(0.001058247 -0.0001992812 -1.205969e-05)
(0.001188465 -0.0001578627 -1.130927e-05)
(0.001283726 -0.0001067459 -7.49731e-06)
(0.0001031737 -0.0005664904 -6.498103e-06)
(0.0003358552 -0.0005145102 1.5694e-05)
(0.0005372486 -0.0004887314 1.23595e-06)
(0.0007509343 -0.0004554281 -2.535391e-06)
(0.0009417013 -0.000410691 -3.095699e-06)
(0.001108918 -0.0003501885 -4.65329e-06)
(0.001250756 -0.0002772141 -3.390174e-06)
(0.00135751 -0.0001887998 -2.476658e-06)
(0.0001036381 -0.0007415789 2.722238e-05)
(0.0003304884 -0.0007501629 2.102339e-05)
(0.0005738745 -0.0007138336 5.620995e-06)
(0.000797293 -0.0006628759 1.654333e-06)
(0.001004955 -0.0005990757 -3.997252e-07)
(0.001190736 -0.0005131652 -1.580689e-06)
(0.001349189 -0.0004097172 -1.36759e-06)
(0.001474712 -0.0002845262 -9.812634e-07)
(0.000124182 -0.001000013 1.446907e-05)
(0.0003659948 -0.0009904452 2.535109e-05)
(0.0006204556 -0.000948933 6.19798e-06)
(0.0008629368 -0.0008866981 4.467004e-06)
(0.001090171 -0.0008036431 1.480007e-06)
(0.001298271 -0.0006955677 1.528392e-07)
(0.001480044 -0.0005623646 3.647992e-07)
(0.001630808 -0.0004007927 1.193252e-07)
(0.0001304948 -0.001259763 1.913528e-05)
(0.0003925723 -0.001254174 2.973527e-05)
(0.0006745609 -0.001205938 8.383246e-06)
(0.0009404341 -0.001132639 6.335392e-06)
(0.001194746 -0.001033747 2.960913e-06)
(0.001431613 -0.0009042776 1.43152e-06)
(0.001644083 -0.0007431909 1.523891e-06)
(0.001828303 -0.0005460692 1.001217e-06)
(0.0001478152 -0.001552487 1.414761e-05)
(0.0004353681 -0.001541034 3.258742e-05)
(0.0007393489 -0.001488406 9.565197e-06)
(0.001033454 -0.001404295 7.165007e-06)
(0.00131719 -0.001292144 3.578044e-06)
(0.00158802 -0.001144359 1.861037e-06)
(0.001837675 -0.0009589435 2.016316e-06)
(0.002063964 -0.0007292911 1.326476e-06)
(0.0001623259 -0.001865201 1.302412e-05)
(0.0004778283 -0.001855413 2.728141e-05)
(0.0008086723 -0.001798427 1.301294e-05)
(0.001135214 -0.001707554 7.30472e-06)
(0.001453292 -0.00158552 4.470924e-06)
(0.00176367 -0.001423522 2.352382e-06)
(0.002057956 -0.00121847 2.645383e-06)
(0.002334707 -0.0009610608 1.921223e-06)
(0.0001824733 -0.00220131 2.04283e-05)
(0.0005269231 -0.002198284 2.885971e-05)
(0.0008844126 -0.002138525 1.623819e-05)
(0.001244952 -0.002044642 7.683799e-06)
(0.001599767 -0.001917097 5.107097e-06)
(0.001953678 -0.001746821 2.529599e-06)
(0.002298494 -0.001529865 2.962132e-06)
(0.002635198 -0.001253641 2.165228e-06)
(0.0001963513 -0.002563645 2.214131e-05)
(0.0005685621 -0.002570741 2.638927e-05)
(0.0009591556 -0.002511132 1.767967e-05)
(0.001355273 -0.002418451 7.592074e-06)
(0.001749615 -0.002290696 5.53883e-06)
(0.002149374 -0.002119242 2.571486e-06)
(0.002549263 -0.001899209 3.028031e-06)
(0.002949372 -0.001615698 1.889918e-06)
(0.0002116074 -0.002962054 2.741966e-05)
(0.0006118196 -0.002975803 2.623477e-05)
(0.001033174 -0.002917974 1.98075e-05)
(0.001464065 -0.002829793 7.682855e-06)
(0.001897502 -0.002707336 5.899638e-06)
(0.002343618 -0.002542891 2.607412e-06)
(0.002800145 -0.002330653 3.168151e-06)
(0.003269242 -0.002056966 2.393024e-06)
(0.0002227899 -0.003385461 2.181394e-05)
(0.0006499125 -0.003409563 2.680277e-05)
(0.001101239 -0.003356147 2.076299e-05)
(0.001564672 -0.003277125 7.917943e-06)
(0.002035132 -0.003166021 6.060554e-06)
(0.002524599 -0.003017318 2.388528e-06)
(0.003033448 -0.002824904 2.747098e-06)
(0.003566954 -0.002578728 9.905081e-07)
(0.0002323147 -0.003836513 7.228817e-06)
(0.0006843458 -0.003872545 3.022736e-05)
(0.001161212 -0.003824267 2.017914e-05)
(0.001653098 -0.003757534 8.220062e-06)
(0.002156074 -0.003662627 5.922644e-06)
(0.002683455 -0.003536635 2.283175e-06)
(0.003237266 -0.003373916 2.50969e-06)
(0.00382724 -0.003167727 1.183522e-06)
(0.0002416213 -0.00429455 1.996574e-05)
(0.0007107052 -0.00435508 3.751e-05)
(0.001211395 -0.004314766 1.976163e-05)
(0.001725405 -0.004264728 9.239047e-06)
(0.002254989 -0.004190667 5.897721e-06)
(0.002812276 -0.00409333 2.216771e-06)
(0.00340122 -0.003968272 2.26377e-06)
(0.004034694 -0.00381207 6.733304e-07)
(0.000237931 -0.004798687 4.043941e-05)
(0.0007142337 -0.004859715 4.261171e-05)
(0.001246213 -0.004829529 1.545252e-05)
(0.00177651 -0.004794047 9.456242e-06)
(0.002326672 -0.004743443 5.340709e-06)
(0.002905075 -0.004677915 2.024258e-06)
(0.003517701 -0.00459559 1.881306e-06)
(0.00418011 -0.004495209 4.741691e-07)
(0.0002473533 -0.005323619 3.328956e-05)
(0.0007369618 -0.005376159 5.15836e-05)
(0.001271328 -0.005359076 1.747716e-05)
(0.001811021 -0.005336803 1.073385e-05)
(0.002370583 -0.005311242 5.660664e-06)
(0.002959623 -0.005279004 2.051789e-06)
(0.003583381 -0.005241372 1.799737e-06)
(0.004258989 -0.005199387 3.35535e-07)
(0.0002523144 -0.005827312 2.00185e-06)
(0.0007504053 -0.005897567 3.179834e-05)
(0.00127958 -0.005889685 2.085858e-05)
(0.001824068 -0.005885343 9.043537e-06)
(0.002384207 -0.005884351 5.641055e-06)
(0.002974683 -0.005885687 1.707349e-06)
(0.003597047 -0.005892674 1.418584e-06)
(0.004270712 -0.005908938 6.066402e-08)
(0.000256409 -0.0063303 4.186232e-05)
(0.0007483561 -0.00641963 4.322114e-05)
(0.0012771 -0.006418404 2.22006e-05)
(0.001816309 -0.006432476 1.015432e-05)
(0.002370226 -0.006453542 5.973559e-06)
(0.002951258 -0.006486114 1.722931e-06)
(0.003560085 -0.006533866 1.386537e-06)
(0.004215931 -0.006605059 -8.822262e-08)
(0.0002502397 -0.006823681 4.848208e-05)
(0.0007349793 -0.006932653 4.894855e-05)
(0.0012597 -0.00694142 2.048756e-05)
(0.001789122 -0.006970227 1.047977e-05)
(0.002330777 -0.00701116 5.279301e-06)
(0.002894533 -0.007070815 1.293251e-06)
(0.00347825 -0.007154337 6.238687e-07)
(0.004101538 -0.007274795 -5.275271e-07)
(0.0002448996 -0.007330831 3.632444e-05)
(0.0007206642 -0.007439213 4.685149e-05)
(0.001231986 -0.007454137 1.959461e-05)
(0.001746932 -0.0074941 1.044325e-05)
(0.002270038 -0.007548712 5.333925e-06)
(0.002808444 -0.007627158 1.508396e-06)
(0.003356392 -0.00773423 9.093204e-07)
(0.003931785 -0.007891201 -5.295904e-07)
(0.0002357146 -0.007803134 3.818526e-05)
(0.0006982837 -0.007930776 5.117365e-05)
(0.001196771 -0.007950808 1.70941e-05)
(0.001695038 -0.007999764 9.88844e-06)
(0.002198246 -0.008063455 3.404373e-06)
(0.002709494 -0.008153812 1.993397e-07)
(0.003214574 -0.00827439 -1.279304e-06)
(0.003729696 -0.008454899 -1.297638e-06)
(0.000227561 -0.008272178 3.779265e-05)
(0.0006750038 -0.008406912 4.916254e-05)
(0.001154525 -0.008430864 1.720612e-05)
(0.001634895 -0.008485773 1.094951e-05)
(0.00211662 -0.008548722 5.076776e-06)
(0.00259805 -0.008635522 2.014232e-06)
(0.003055694 -0.008740399 1.238112e-06)
(0.003498604 -0.00891054 -7.727171e-07)
(0.0002092945 -0.008696704 1.84508e-05)
(0.0006390809 -0.008862924 5.020763e-05)
(0.001108857 -0.008891264 1.030346e-05)
(0.001577797 -0.008953898 8.44961e-06)
(0.002049101 -0.009015 -5.896955e-07)
(0.002518326 -0.009091772 -9.440491e-07)
(0.002939854 -0.009170899 -5.439961e-06)
(0.003316218 -0.009299116 -3.833704e-08)
(0.000184763 -0.009165816 1.287616e-05)
(0.0005904158 -0.009312982 5.390733e-05)
(0.001054012 -0.009347275 7.653668e-06)
(0.00151185 -0.009416819 1.266742e-05)
(0.001979395 -0.009466188 7.106854e-06)
(0.002442645 -0.009518982 5.038456e-06)
(0.002848504 -0.009509324 5.664874e-06)
(0.003160929 -0.00952484 -1.786678e-06)
(0.0002760141 -2.458603e-05 -3.730327e-06)
(0.0005795817 -8.156163e-05 9.683113e-07)
(0.0006934404 -6.535484e-05 -6.11465e-06)
(0.0008922904 -7.606539e-05 -2.642439e-06)
(0.001030507 -6.085029e-05 -4.198008e-06)
(0.001159026 -4.962842e-05 -1.682779e-06)
(0.001246323 -3.252236e-05 -2.175165e-06)
(2.470674e-05 -0.0002807806 2.465112e-06)
(0.0003122015 -0.0003025323 5.93985e-07)
(0.0005172294 -0.000300633 -1.21731e-06)
(0.0007232744 -0.0002476262 -2.099348e-06)
(0.0009009755 -0.0002345995 -5.536596e-07)
(0.001056503 -0.0001953702 -1.551307e-06)
(0.001186485 -0.0001557883 -7.683733e-07)
(0.001280892 -0.000104147 -5.716625e-07)
(9.367625e-05 -0.0005959018 -3.655433e-07)
(0.0003371321 -0.0005152905 1.830469e-06)
(0.0005368544 -0.0004881474 5.549618e-07)
(0.0007509364 -0.0004545865 -8.952824e-07)
(0.0009420919 -0.0004101238 -3.489749e-07)
(0.001108836 -0.0003491284 -1.199066e-06)
(0.001250447 -0.0002766209 -4.523752e-07)
(0.001356851 -0.0001879987 -3.577817e-07)
(9.095202e-05 -0.000751501 8.435966e-06)
(0.0003249328 -0.0007528462 3.564691e-06)
(0.0005727925 -0.0007149277 2.337036e-06)
(0.0007969248 -0.0006630533 7.920079e-07)
(0.001005331 -0.0005987642 7.972288e-07)
(0.001190579 -0.0005125347 1.529208e-08)
(0.001349026 -0.0004090936 3.808401e-07)
(0.001474446 -0.0002836163 4.127831e-07)
(0.0001178822 -0.001018231 4.706893e-07)
(0.0003650107 -0.0009931495 1.96344e-06)
(0.000620789 -0.0009505709 1.668767e-06)
(0.0008631373 -0.0008880003 9.88733e-07)
(0.001091 -0.0008042182 1.006535e-06)
(0.001298628 -0.0006957158 2.889682e-07)
(0.001480398 -0.0005620847 7.565701e-07)
(0.001631387 -0.0004000604 6.970404e-07)
(0.0001220712 -0.001269065 2.655386e-06)
(0.0003902338 -0.001253764 2.982655e-06)
(0.0006745139 -0.001205773 3.011279e-06)
(0.0009402052 -0.001133439 1.907486e-06)
(0.001195621 -0.001033944 1.916985e-06)
(0.001432073 -0.00090428 1.050407e-06)
(0.001644818 -0.0007426643 1.527012e-06)
(0.001829604 -0.0005449737 1.387939e-06)
(0.0001355961 -0.001562303 5.896935e-06)
(0.0004285155 -0.001539431 3.23863e-06)
(0.0007388669 -0.001487774 3.7165e-06)
(0.001032576 -0.001405149 2.119358e-06)
(0.001318144 -0.001292446 2.212592e-06)
(0.001588611 -0.001144583 1.213703e-06)
(0.001838726 -0.000958563 1.825341e-06)
(0.002065994 -0.000728223 1.6497e-06)
(0.0001478175 -0.001876167 1.073632e-05)
(0.0004662178 -0.001852172 3.721366e-06)
(0.0008070155 -0.001797345 4.999646e-06)
(0.00113342 -0.001708168 2.490348e-06)
(0.001454153 -0.001585759 2.73974e-06)
(0.001764191 -0.00142377 1.532001e-06)
(0.002059249 -0.001218092 2.278015e-06)
(0.002337333 -0.0009598835 2.131409e-06)
(0.0001629394 -0.002220587 1.736828e-05)
(0.0005092792 -0.002195428 4.970327e-06)
(0.0008812879 -0.002138288 6.292697e-06)
(0.001242157 -0.002045457 2.736458e-06)
(0.001600431 -0.001917579 3.027406e-06)
(0.001954151 -0.001747306 1.601642e-06)
(0.002300008 -0.001529798 2.508481e-06)
(0.002638458 -0.001252947 2.40035e-06)
(0.0001765785 -0.002592513 1.69544e-05)
(0.0005508767 -0.002568642 4.563536e-06)
(0.0009554687 -0.002511777 6.676088e-06)
(0.001352175 -0.002419539 2.713431e-06)
(0.001750141 -0.002291413 3.215146e-06)
(0.002149658 -0.002119841 1.572952e-06)
(0.002550655 -0.001899356 2.511897e-06)
(0.002952321 -0.001615054 2.219973e-06)
(0.0001904929 -0.002995507 1.814252e-05)
(0.0005926496 -0.002973926 4.269083e-06)
(0.001028941 -0.002919047 6.917873e-06)
(0.001460638 -0.002831046 2.519941e-06)
(0.001897996 -0.002708258 3.185629e-06)
(0.002343874 -0.002543709 1.442909e-06)
(0.002801825 -0.002331156 2.499806e-06)
(0.003272758 -0.002057055 2.495689e-06)
(0.0002020261 -0.003425313 1.763307e-05)
(0.0006302359 -0.003408457 3.81827e-06)
(0.001096986 -0.003357939 6.964672e-06)
(0.001561198 -0.003278603 2.415313e-06)
(0.00203548 -0.003167192 3.126266e-06)
(0.002524573 -0.003018261 1.15836e-06)
(0.003034591 -0.002825773 2.037631e-06)
(0.003569193 -0.002579386 1.443426e-06)
(0.0002112331 -0.003886261 1.674475e-05)
(0.0006630733 -0.003871394 2.819824e-06)
(0.001157548 -0.003826755 6.152148e-06)
(0.001649811 -0.003759001 1.972075e-06)
(0.002156564 -0.003663896 2.729571e-06)
(0.002683375 -0.003537582 8.146496e-07)
(0.00323843 -0.003374766 1.644641e-06)
(0.003829372 -0.003168461 1.217556e-06)
(0.0002208949 -0.004367635 1.535901e-05)
(0.0006931417 -0.004355101 3.817211e-06)
(0.001208284 -0.004319172 5.938835e-06)
(0.00172274 -0.00426629 2.15899e-06)
(0.002255403 -0.004192076 2.558317e-06)
(0.002812148 -0.004094226 5.901869e-07)
(0.003401955 -0.003969313 1.220518e-06)
(0.004035978 -0.00381304 6.357017e-07)
(0.0002273203 -0.004863402 -3.358869e-06)
(0.0007152725 -0.004857362 1.364698e-06)
(0.001245444 -0.004831709 3.149141e-06)
(0.001775888 -0.004795069 1.458062e-06)
(0.002327477 -0.004744348 1.908496e-06)
(0.002904981 -0.004678637 1.523091e-07)
(0.003518363 -0.004596354 6.973302e-07)
(0.004181005 -0.004496067 1.386734e-07)
(0.0002309044 -0.005367427 5.64263e-06)
(0.0007287303 -0.005368232 3.065024e-06)
(0.001269945 -0.005356761 4.410258e-06)
(0.001809401 -0.005336922 1.766969e-06)
(0.002371063 -0.005311497 1.930042e-06)
(0.002959375 -0.005279487 -3.084623e-08)
(0.003583698 -0.005242154 3.667073e-07)
(0.004259458 -0.005200183 -1.951398e-07)
(0.0002315533 -0.005887138 1.472182e-05)
(0.0007300253 -0.005889071 2.04693e-06)
(0.00127651 -0.005888301 5.2901e-06)
(0.001820794 -0.005885278 1.283016e-06)
(0.002384522 -0.005884508 1.659681e-06)
(0.002973943 -0.005886118 -4.915435e-07)
(0.003597248 -0.005893237 -1.772609e-07)
(0.004270808 -0.005909786 -7.737904e-07)
(0.0002339105 -0.006408749 1.472666e-05)
(0.0007321129 -0.006413762 4.205745e-06)
(0.001273729 -0.006419756 5.884098e-06)
(0.001813152 -0.006432844 1.581691e-06)
(0.002370195 -0.006454245 1.575266e-06)
(0.002950597 -0.006486746 -7.048406e-07)
(0.003559939 -0.006534922 -5.200385e-07)
(0.004215776 -0.006606102 -1.168778e-06)
(0.0002310421 -0.006912861 9.865427e-06)
(0.0007239 -0.006926217 3.593667e-06)
(0.001257548 -0.006942271 4.43405e-06)
(0.001786551 -0.006970544 8.570434e-07)
(0.002330919 -0.007011594 5.237222e-07)
(0.002893525 -0.00707136 -1.658297e-06)
(0.003478088 -0.007155077 -1.665564e-06)
(0.004101144 -0.007276025 -2.187151e-06)
(0.0002251124 -0.00741433 1.028057e-05)
(0.0007076407 -0.007432126 3.224905e-06)
(0.001229751 -0.007455275 4.155856e-06)
(0.00174435 -0.007495064 7.479033e-07)
(0.002269955 -0.007550308 3.923102e-07)
(0.002807645 -0.007629046 -1.716425e-06)
(0.003355716 -0.007737193 -1.793244e-06)
(0.003930898 -0.007894028 -2.548274e-06)
(0.0002179602 -0.007903065 5.491826e-06)
(0.0006881057 -0.007923246 1.38797e-06)
(0.001195131 -0.007951892 1.553824e-06)
(0.001692246 -0.008000119 -1.336163e-06)
(0.002197716 -0.008063854 -2.444233e-06)
(0.002707355 -0.008154602 -4.38242e-06)
(0.003213674 -0.00827522 -5.241985e-06)
(0.003728842 -0.008457193 -5.128709e-06)
(0.0002098462 -0.008375131 6.640506e-06)
(0.000664317 -0.008400417 1.632356e-06)
(0.001153552 -0.00843403 1.783264e-06)
(0.001633319 -0.008488806 -4.262238e-07)
(0.002116425 -0.008554457 -1.026868e-06)
(0.002597112 -0.008642013 -2.937563e-06)
(0.003053759 -0.008751254 -3.041539e-06)
(0.003495763 -0.008919358 -4.697868e-06)
(0.0001974977 -0.008827454 -4.519736e-06)
(0.0006348477 -0.008856703 -1.917398e-06)
(0.001107523 -0.008893908 -3.341336e-06)
(0.001572872 -0.008954222 -5.040732e-06)