/*--------------------------------*- C++ -*----------------------------------*\
  =========                 |
  \\      /  F ield         | OpenFOAM: The Open Source CFD Toolbox
   \\    /   O peration     | Website:  https://openfoam.org
    \\  /    A nd           | Version:  7
     \\/     M anipulation  |
\*---------------------------------------------------------------------------*/
FoamFile
{
    version     2.0;
    format      ascii;
    class       volVectorField;
    location    "0.1";
    object      C;
}
// * * * * * * * * * * * * * * * * * * * * * * * * * * * * * * * * * * * * * //

dimensions      [0 1 0 0 0 0 0];

internalField   nonuniform List<vector> 
82743
(
(0.4992669 0.4992715 0.09770909)
(0.6997331 0.4996393 0.095607)
(0.8997461 0.4996101 0.09494822)
(1.099898 0.4995582 0.09480729)
(1.299967 0.4995705 0.09477969)
(1.499988 0.4995872 0.09477586)
(1.699995 0.4995665 0.09477691)
(1.899997 0.4995209 0.09477764)
(2.099996 0.4994783 0.09477101)
(0.4996256 0.6997491 0.09560946)
(0.6996093 0.6996591 0.09171167)
(0.8995269 0.699664 0.09059048)
(1.099796 0.6997183 0.09034298)
(1.299929 0.6998667 0.09030418)
(1.499974 0.6999618 0.09030214)
(1.699986 0.6998858 0.09029873)
(1.899993 0.6997059 0.09027717)
(2.099992 0.6995459 0.09023208)
(0.4995732 0.8997725 0.09496979)
(0.6995147 0.8996045 0.09064363)
(0.8993574 0.8996455 0.08935726)
(1.099673 0.8999602 0.08914508)
(1.299874 0.9005017 0.08917519)
(1.499954 0.9008302 0.0892071)
(1.699982 0.9005903 0.08920174)
(1.90002 0.9000495 0.08911892)
(2.100044 0.8996194 0.08896224)
(0.4994783 1.099921 0.09488694)
(0.6991903 1.099675 0.09066319)
(0.8987122 1.099608 0.08968931)
(1.098999 1.1003 0.08983035)
(1.299597 1.101765 0.09020603)
(1.499923 1.102705 0.09038768)
(1.699991 1.101978 0.09040198)
(1.900289 1.100525 0.09008637)
(2.100647 1.099603 0.0895152)
(0.4994692 1.299976 0.09496691)
(0.6989082 1.299474 0.09110618)
(0.8966799 1.297776 0.0920065)
(1.096592 1.299798 0.09274033)
(1.299415 1.304285 0.09516051)
(1.499913 1.308206 0.09525835)
(1.699959 1.305732 0.09576876)
(1.90057 1.300043 0.09461396)
(2.102827 1.298721 0.09193857)
(0.4995566 1.49999 0.09509754)
(0.6990549 1.499481 0.09160758)
(0.8979053 1.497633 0.09298254)
(1.043977 1.445216 0.04295204)
(1.247416 1.449689 0.04585079)
(1.448791 1.464469 0.04568421)
(1.648973 1.459908 0.04625654)
(1.850182 1.446108 0.04589531)
(2.051512 1.443526 0.0431873)
(0.4997075 1.700005 0.0952204)
(0.6994376 1.699811 0.09209939)
(0.898911 1.699795 0.09536666)
(1.044014 1.648679 0.04522551)
(1.20365 1.611343 0.01050768)
(2.050558 1.651082 0.04476407)
(0.4998433 1.900011 0.09529814)
(0.6997989 1.900007 0.09239279)
(0.9003083 1.900006 0.09598911)
(1.045453 1.848985 0.04571035)
(1.204251 1.812203 0.009969716)
(2.094716 1.900617 0.09742053)
(0.4999215 2.100007 0.09533147)
(0.7000304 2.100011 0.0924666)
(0.9007065 2.100003 0.09606376)
(1.04562 2.049004 0.04571221)
(1.204251 2.012204 0.009969409)
(2.092365 2.099977 0.09743054)
(0.4999463 2.3 0.09533918)
(0.700097 2.3 0.09248014)
(0.9007892 2.3 0.09607122)
(1.045645 2.249004 0.04571178)
(1.204251 2.212204 0.009969453)
(2.092409 2.299846 0.09730317)
(0.4999182 2.499993 0.09533048)
(0.7000202 2.49999 0.09246488)
(0.9006888 2.499998 0.09606195)
(1.045636 2.449002 0.04571221)
(1.204251 2.412204 0.009969443)
(2.093946 2.499583 0.09744598)
(0.4998383 2.699992 0.0952966)
(0.6997837 2.700004 0.09239058)
(0.9002769 2.700032 0.09598721)
(1.045567 2.649017 0.0457165)
(1.204251 2.612204 0.009969361)
(2.050353 2.647182 0.0452205)
(0.499707 2.900004 0.09521846)
(0.6994535 2.900234 0.09210181)
(0.8990778 2.900418 0.0954197)
(1.045144 2.849211 0.04570193)
(1.204249 2.812206 0.009970183)
(2.051154 2.849878 0.04567412)
(0.499558 3.100021 0.09509059)
(0.6990933 3.100582 0.09159376)
(0.8982098 3.102645 0.09297284)
(1.044147 3.051414 0.04384954)
(1.205128 3.012624 0.01134015)
(1.412638 3.010254 0.01031672)
(1.611192 3.009825 0.009867884)
(1.81298 3.010715 0.01056673)
(2.052158 3.052221 0.0443308)
(0.4994558 3.300021 0.09494657)
(0.6989155 3.300577 0.09105937)
(0.8968 3.302527 0.0919147)
(1.096877 3.301526 0.09248008)
(1.299235 3.301324 0.09458118)
(1.500042 3.30031 0.09498863)
(1.700776 3.300939 0.09494787)
(1.90148 3.302469 0.09381234)
(2.10309 3.301827 0.09148096)
(0.4994199 3.500007 0.09483001)
(0.6991286 3.500239 0.09054157)
(0.8986875 3.500493 0.08950763)
(1.098997 3.500448 0.08958103)
(1.299541 3.500288 0.0899143)
(1.499983 3.500207 0.09009366)
(1.700251 3.500358 0.09004552)
(1.900574 3.500585 0.08969566)
(2.100799 3.500633 0.08918331)
(0.499419 3.699994 0.09476663)
(0.6993521 3.699993 0.09023609)
(0.8992442 3.699968 0.08881386)
(1.099604 3.699896 0.08852042)
(1.299831 3.699793 0.08850839)
(1.499973 3.699737 0.08852136)
(1.700071 3.699783 0.08849674)
(1.900124 3.699891 0.08840627)
(2.100115 3.699975 0.08826224)
(0.499419 3.899994 0.09474873)
(0.6993698 3.899979 0.09015172)
(0.8992877 3.899956 0.08862907)
(1.099662 3.899923 0.08822044)
(1.299867 3.899885 0.08811469)
(1.499963 3.899863 0.08808404)
(1.700013 3.899878 0.08806767)
(1.900031 3.899918 0.08804137)
(2.100023 3.899955 0.08799612)
(0.450759 0.2590668 0.2508453)
(0.6504192 0.2584725 0.251693)
(0.8500161 0.2581565 0.2521401)
(1.049986 0.2580917 0.2521632)
(1.249991 0.2580836 0.2521583)
(1.449993 0.2580829 0.2521576)
(1.649994 0.258083 0.2521591)
(1.849995 0.2580841 0.2521644)
(2.049995 0.2580894 0.2521746)
(0.259072 0.4507457 0.2508439)
(0.500061 0.5000706 0.2946989)
(0.6995425 0.4995933 0.2918467)
(0.8996894 0.4990362 0.2908527)
(1.099829 0.4988271 0.290553)
(1.299915 0.4988051 0.2904743)
(1.499963 0.498821 0.290461)
(1.699989 0.4987977 0.2904644)
(1.9 0.4987325 0.2904641)
(2.100001 0.4986559 0.2904396)
(0.2584721 0.650419 0.2516932)
(0.4995576 0.69958 0.2918563)
(0.6989539 0.6990676 0.2865804)
(0.8993261 0.6986838 0.2845768)
(1.09962 0.6986281 0.2840119)
(1.299803 0.6987898 0.283898)
(1.499918 0.6989251 0.2838888)
(1.699987 0.6988528 0.2838784)
(1.900021 0.6985948 0.2838123)
(2.100023 0.6983084 0.2836677)
(0.2581551 0.8500175 0.2521411)
(0.498966 0.8997615 0.2909104)
(0.6984414 0.8995473 0.284694)
(0.8989925 0.8995224 0.2823074)
(1.09937 0.8998736 0.2818095)
(1.29965 0.9005689 0.2818492)
(1.499871 0.9010663 0.2819094)
(1.700022 0.9009018 0.2818848)
(1.900095 0.9001765 0.2816626)
(2.100094 0.8994294 0.2812062)
(0.2580897 1.049989 0.2521664)
(0.4987278 1.099924 0.290749)
(0.6982091 1.099916 0.2845518)
(0.8987371 1.100149 0.28269)
(1.098954 1.101056 0.2830916)
(1.299359 1.103006 0.2837893)
(1.499829 1.104471 0.2840391)
(1.700177 1.104151 0.2840278)
(1.900323 1.10222 0.2834261)
(2.100332 1.100383 0.2820908)
(0.2580822 1.249994 0.2521658)
(0.4987448 1.300003 0.2909376)
(0.6983012 1.300035 0.2853834)
(0.8985043 1.300107 0.2853653)
(1.097741 1.300957 0.2884338)
(1.298563 1.30664 0.2905074)
(1.499808 1.309264 0.2905766)
(1.70069 1.310591 0.2909978)
(1.901044 1.303965 0.2897928)
(2.101176 1.300193 0.286576)
(0.258086 1.449995 0.2521711)
(0.4990212 1.500034 0.2912606)
(0.6991279 1.500044 0.2866034)
(0.8995644 1.4999 0.2890286)
(1.04716 1.449314 0.242432)
(1.24664 1.456408 0.2470575)
(1.448938 1.463578 0.246879)
(1.650795 1.469304 0.2475434)
(1.85283 1.456375 0.2469569)
(2.052495 1.449201 0.2420139)
(0.2580964 1.649995 0.2521766)
(0.4995567 1.700057 0.2915422)
(0.7010302 1.700126 0.2875543)
(0.90574 1.700277 0.2911928)
(1.056101 1.649567 0.2462162)
(1.20411 1.608978 0.2124948)
(2.091926 1.700728 0.2929707)
(0.2581089 1.849995 0.2521802)
(0.5000954 1.900042 0.2917082)
(0.7029028 1.90007 0.2880112)
(0.910806 1.900065 0.2918413)
(1.066179 1.849804 0.2467759)
(2.078288 1.899801 0.2924303)
(0.2581178 2.049994 0.2521822)
(0.5004206 2.100022 0.2917832)
(0.7038843 2.100037 0.2881744)
(0.9124493 2.100023 0.291932)
(1.067993 2.049911 0.2468486)
(2.077082 2.099121 0.2910012)
(0.2581217 2.249993 0.2521828)
(0.5005225 2.299998 0.2918038)
(0.7041763 2.299997 0.288216)
(0.9128831 2.299998 0.2919595)
(1.068398 2.249914 0.2468727)
(2.07802 2.299998 0.2904439)
(0.2581204 2.449993 0.2521826)
(0.5004053 2.499975 0.2917794)
(0.7038341 2.499956 0.2881656)
(0.9123547 2.499965 0.2919244)
(1.068239 2.449883 0.2468622)
(2.077385 2.50088 0.2914417)
(0.258114 2.649993 0.2521813)
(0.5000682 2.699959 0.2916988)
(0.7028023 2.699935 0.2879846)
(0.9105211 2.699949 0.2917988)
(1.067205 2.649939 0.2468166)
(2.078944 2.700331 0.2930575)
(0.2581031 2.849993 0.2521785)
(0.4995373 2.899954 0.2915259)
(0.7009843 2.899932 0.2875096)
(0.9057297 2.899942 0.2910859)
(1.063041 2.850443 0.2466166)
(2.092946 2.900013 0.2931945)
(0.2580905 3.049994 0.2521738)
(0.4990073 3.099976 0.2912293)
(0.6991519 3.100026 0.2865241)
(0.899951 3.100389 0.2888569)
(1.05021 3.051793 0.2446397)
(1.205524 3.016775 0.2115227)
(1.450434 3.046862 0.2489388)
(1.651498 3.047144 0.2489843)
(1.835152 3.027245 0.2246563)
(2.103702 3.102791 0.291337)
(0.2580817 3.249994 0.2521675)
(0.498692 3.299982 0.2908678)
(0.6982564 3.300009 0.2852116)
(0.8986253 3.300194 0.285031)
(1.097946 3.300338 0.2877955)
(1.298367 3.298008 0.2897771)
(1.500089 3.295842 0.2901373)
(1.702255 3.297293 0.2900212)
(1.903711 3.30102 0.2887183)
(2.102402 3.301386 0.2855115)
(0.2580775 3.449995 0.2521622)
(0.498561 3.499978 0.2905783)
(0.6979932 3.499954 0.2841668)
(0.8985882 3.499902 0.2820723)
(1.098864 3.499663 0.28225)
(1.299276 3.498928 0.2828468)
(1.500027 3.498388 0.283053)
(1.700847 3.49883 0.2829198)
(1.901292 3.499829 0.282255)
(2.100953 3.50028 0.2810006)
(0.2580765 3.649995 0.2521609)
(0.498518 3.69998 0.2904266)
(0.6979217 3.699945 0.2836298)
(0.8986127 3.699873 0.2807677)
(1.099134 3.699721 0.2799755)
(1.299538 3.699466 0.2798675)
(1.499938 3.699312 0.2798567)
(1.70029 3.699461 0.2797752)
(1.900468 3.69979 0.2795242)
(2.100386 3.7 0.2790789)
(0.2580786 3.849995 0.252166)
(0.4985138 3.899985 0.2903757)
(0.6979087 3.899959 0.2834084)
(0.8986316 3.899911 0.2802617)
(1.099213 3.899835 0.2791311)
(1.299599 3.899741 0.278762)
(1.499874 3.899694 0.2786433)
(1.700068 3.899748 0.2785837)
(1.900163 3.899865 0.2784937)
(2.100152 3.899957 0.2783304)
(0.4517887 0.2586868 0.4503846)
(0.7013551 0.3080952 0.5008564)
(0.9003733 0.3066352 0.5017184)
(1.099964 0.306121 0.5018619)
(1.299962 0.3060182 0.5018488)
(1.499984 0.3060022 0.50184)
(1.699994 0.3059945 0.5018417)
(1.899999 0.3059808 0.5018474)
(2.1 0.305962 0.5018477)
(0.2586916 0.4517853 0.4503837)
(0.5001348 0.500152 0.4982798)
(0.69968 0.4985937 0.4967401)
(0.8996438 0.4969895 0.4959668)
(1.099747 0.4963725 0.4956699)
(1.299852 0.4962307 0.4955734)
(1.49993 0.496221 0.4955522)
(1.699982 0.4961899 0.4955527)
(1.900007 0.4961012 0.4955452)
(2.100014 0.4959843 0.4955027)
(0.3080868 0.7013628 0.5008592)
(0.4985362 0.6997378 0.4967557)
(0.6986806 0.698849 0.4934243)
(0.899069 0.6979938 0.4916351)
(1.099397 0.6976835 0.4910101)
(1.299646 0.6977835 0.4908612)
(1.499846 0.6979359 0.4908425)
(1.699989 0.697875 0.4908245)
(1.900062 0.6975542 0.4907317)
(2.100072 0.6971474 0.4905234)
(0.3066198 0.9003916 0.5017323)
(0.4968842 0.89975 0.4960493)
(0.6976523 0.899389 0.4917902)
(0.8984163 0.8991702 0.4895174)
(1.09891 0.8994689 0.4889283)
(1.299331 0.9002703 0.4889558)
(1.499753 0.9009241 0.4890212)
(1.700081 0.9008558 0.4889743)
(1.900242 0.8999733 0.4886675)
(2.100245 0.8989 0.4880267)
(0.3061078 1.099988 0.5019007)
(0.4962482 1.099879 0.4959215)
(0.6971612 1.099809 0.4916637)
(0.897941 1.099973 0.4898814)
(1.098203 1.100924 0.4901101)
(1.298817 1.103051 0.4906869)
(1.499679 1.104814 0.4909151)
(1.700377 1.104855 0.4908457)
(1.900722 1.10275 0.4902054)
(2.100732 1.100358 0.4887564)
(0.3060356 1.299989 0.5019291)
(0.4962271 1.299963 0.4961189)
(0.6973613 1.29993 0.4925086)
(0.8977856 1.299838 0.4922113)
(1.097035 1.300743 0.494158)
(1.297924 1.306419 0.4954063)
(1.49966 1.308478 0.4956284)
(1.701011 1.311294 0.4956578)
(1.901625 1.30468 0.4948081)
(2.10186 1.300111 0.4924255)
(0.306113 1.500013 0.5019679)
(0.4967119 1.500013 0.4964305)
(0.6988425 1.499963 0.4936479)
(0.8998198 1.499667 0.4948933)
(1.046915 1.449016 0.4469981)
(1.24639 1.456229 0.4489979)
(1.44848 1.459121 0.4491443)
(1.650861 1.468747 0.4492785)
(1.853265 1.457069 0.448961)
(2.053428 1.449066 0.4466178)
(0.306271 1.700027 0.502007)
(0.4976536 1.700065 0.4966807)
(0.7020428 1.700146 0.4944594)
(0.9083123 1.700179 0.4961584)
(1.058188 1.649374 0.4487765)
(1.204117 1.608979 0.4125388)
(2.08956 1.700199 0.4964492)
(0.3064368 1.900024 0.5020347)
(0.4986295 1.900062 0.4968233)
(0.7052775 1.900118 0.4948552)
(0.9156382 1.900051 0.4965204)
(1.071788 1.849815 0.4490431)
(2.075104 1.898565 0.4954509)
(0.3065484 2.100014 0.5020506)
(0.4992632 2.100039 0.4968905)
(0.7071866 2.100088 0.4950252)
(0.9185378 2.100078 0.4966042)
(1.117735 2.101507 0.5008511)
(1.914797 2.102013 0.5015679)
(2.081009 2.097506 0.4934947)
(0.3065861 2.299999 0.502056)
(0.499474 2.299996 0.4969101)
(0.7078193 2.299992 0.4950774)
(0.9196401 2.299993 0.4966636)
(1.118608 2.300003 0.5016543)
(1.920381 2.299999 0.4973245)
(2.086524 2.300014 0.4923313)
(0.3065439 2.499984 0.5020504)
(0.4992333 2.499953 0.4968868)
(0.707085 2.49989 0.4950153)
(0.9183402 2.499884 0.4965955)
(1.117592 2.498467 0.5008524)
(1.914822 2.498 0.5015804)
(2.081149 2.502559 0.4936257)
(0.3064284 2.699974 0.5020336)
(0.4985731 2.699929 0.4968133)
(0.7050614 2.699854 0.4948273)
(0.9150695 2.699881 0.4964978)
(1.07343 2.649846 0.4490872)
(2.075462 2.701736 0.4955957)
(0.3062616 2.899971 0.5020037)
(0.4975989 2.89993 0.4966594)
(0.7018574 2.899855 0.4944052)
(0.9078645 2.899803 0.4960949)
(1.066017 2.850147 0.4489898)
(2.091123 2.901097 0.4963764)
(0.306099 3.09998 0.5019591)
(0.4966578 3.099974 0.4963847)
(0.6987575 3.100042 0.4935319)
(0.8998298 3.100368 0.4946997)
(1.049581 3.051123 0.4480354)
(1.199936 3.015224 0.412494)
(1.450143 3.046418 0.44973)
(1.651746 3.046731 0.4497356)
(1.83742 3.02763 0.4248315)
(2.056783 3.055187 0.4474855)
(0.3059933 3.299989 0.5019067)
(0.4960923 3.299989 0.4960206)
(0.6971789 3.300045 0.4922618)
(0.897679 3.300333 0.491781)
(1.0967 3.300309 0.493561)
(1.297317 3.297449 0.4947067)
(1.500026 3.294962 0.4949713)
(1.703234 3.296876 0.4948702)
(1.905403 3.301708 0.4940203)
(2.104191 3.302639 0.4915698)
(0.3059434 3.499992 0.5018637)
(0.4958538 3.499979 0.4957002)
(0.6966684 3.499957 0.4911278)
(0.897532 3.499888 0.4889926)
(1.097868 3.499534 0.4889296)
(1.298599 3.498481 0.4893592)
(1.500006 3.497744 0.4895263)
(1.701535 3.498484 0.4893775)
(1.902436 3.500039 0.4886764)
(2.101975 3.500709 0.4872203)
(0.3059259 3.699994 0.5018424)
(0.4957776 3.699974 0.4955124)
(0.6965314 3.699929 0.4904679)
(0.8975578 3.699818 0.487419)
(1.098362 3.699567 0.4862931)
(1.299071 3.699148 0.4860577)
(1.499865 3.698915 0.4860048)
(1.700596 3.699201 0.4858832)
(1.90099 3.699783 0.4855277)
(2.10087 3.700137 0.4848661)
(0.3059234 3.899996 0.5018398)
(0.4957679 3.899977 0.4954323)
(0.6965156 3.899938 0.4901588)
(0.8976031 3.899858 0.4866988)
(1.098528 3.899726 0.4850832)
(1.2992 3.899563 0.4844848)
(1.499738 3.89949 0.4842778)
(1.700147 3.899601 0.4841773)
(1.900364 3.899821 0.4840328)
(2.100361 3.899987 0.4837589)
(0.4522729 0.2583976 0.6500095)
(0.7023606 0.3066851 0.7001647)
(0.900703 0.3041848 0.7004024)
(1.099964 0.3034103 0.7005118)
(1.299944 0.3032371 0.7005029)
(1.499975 0.3032047 0.7004945)
(1.699992 0.3031921 0.7004936)
(1.899999 0.3031745 0.7004931)
(2.100001 0.3031506 0.7004872)
(0.2584 0.4522754 0.6500102)
(0.4996977 0.4997195 0.6993475)
(0.6995129 0.4970072 0.6986571)
(0.8995404 0.494407 0.6982206)
(1.099669 0.4933679 0.6980204)
(1.299801 0.4930873 0.6979463)
(1.499905 0.493039 0.6979266)
(1.699975 0.4929974 0.6979227)
(1.900013 0.4928945 0.6979093)
(2.100022 0.4927537 0.6978674)
(0.3066741 0.7023708 0.7001685)
(0.4969414 0.6995808 0.6986708)
(0.6979724 0.6981652 0.6972502)
(0.8987162 0.6967819 0.6962702)
(1.099185 0.6961694 0.6958519)
(1.299516 0.696161 0.6957349)
(1.499786 0.6962962 0.6957129)
(1.699984 0.6962379 0.6956946)
(1.90009 0.695884 0.6956206)
(2.100109 0.6954062 0.695452)
(0.3041675 0.9007257 0.700417)
(0.4942974 0.8996649 0.6982863)
(0.696411 0.8990897 0.6963895)
(0.897768 0.8986394 0.6951118)
(1.098502 0.8988272 0.6947043)
(1.299081 0.899658 0.6947013)
(1.499656 0.9004 0.694735)
(1.70011 0.9003841 0.6946918)
(1.90035 0.8994066 0.6944619)
(2.100371 0.8981304 0.6939637)
(0.3034008 1.099994 0.7005497)
(0.4932713 1.099825 0.6982083)
(0.6956713 1.099673 0.696326)
(0.8971332 1.099751 0.6953376)
(1.097698 1.100757 0.6953716)
(1.298491 1.103028 0.6956465)
(1.499566 1.10496 0.6957678)
(1.700459 1.105141 0.6957054)
(1.900925 1.102914 0.6952982)
(2.100967 1.100168 0.6943492)
(0.3032746 1.299976 0.7005763)
(0.4931983 1.299935 0.6983305)
(0.6959641 1.299861 0.6968486)
(0.8972371 1.299772 0.6966381)
(1.096761 1.300805 0.6974551)
(1.297727 1.306527 0.6979998)
(1.499582 1.30859 0.6981245)
(1.701069 1.311636 0.6981074)
(1.901767 1.305012 0.6976698)
(2.102017 1.300166 0.6964059)
(0.3033664 1.50001 0.7006053)
(0.4938083 1.500007 0.6985192)
(0.6978766 1.499947 0.6974911)
(0.8999103 1.499595 0.6979782)
(1.046929 1.448977 0.6487737)
(1.24638 1.456202 0.6495926)
(1.44846 1.458799 0.6496495)
(1.650852 1.468708 0.6497029)
(1.853321 1.457162 0.6495633)
(2.053522 1.449058 0.6485351)
(0.303563 1.700029 0.700634)
(0.4949694 1.700074 0.6986701)
(0.7017705 1.700164 0.6979111)
(0.9091941 1.700115 0.6985828)
(1.058605 1.649352 0.6495591)
(1.204119 1.608983 0.612543)
(2.089128 1.699802 0.6983603)
(0.3037739 1.900029 0.7006543)
(0.4961869 1.900078 0.6987597)
(0.7057574 1.900158 0.6981154)
(0.9174728 1.900062 0.6987627)
(1.072954 1.849861 0.6496912)
(2.075772 1.897657 0.6978748)
(0.3039221 2.100018 0.7006662)
(0.4970167 2.100053 0.6988042)
(0.7083055 2.100136 0.6982034)
(0.9216042 2.100186 0.6987913)
(1.119604 2.102554 0.7002512)
(1.920874 2.098112 0.7029742)
(2.087597 2.096161 0.6971451)
(0.3039746 2.299999 0.7006709)
(0.4973064 2.299995 0.6988177)
(0.7092099 2.299987 0.6982286)
(0.9233544 2.299989 0.6988029)
(1.121301 2.300003 0.7004301)
(1.932935 2.3 0.7045159)
(2.097488 2.300025 0.6967246)
(0.3039195 2.499981 0.7006677)
(0.4969868 2.499934 0.6988022)
(0.7081822 2.499828 0.6981967)
(0.921362 2.499763 0.6987864)
(1.119434 2.497416 0.700249)
(1.920895 2.501901 0.7029782)
(2.087713 2.503935 0.6971801)
(0.3037687 2.699968 0.7006553)
(0.4961288 2.699904 0.6987523)
(0.7054917 2.699786 0.6980969)
(0.9168101 2.699834 0.6987489)
(1.075085 2.649771 0.6497123)
(2.076134 2.702704 0.697906)
(0.3035568 2.899965 0.7006328)
(0.4949088 2.899905 0.6986526)
(0.7015157 2.899788 0.6978714)
(0.908599 2.899779 0.6985458)
(1.066556 2.850107 0.6496445)
(2.09085 2.901647 0.698326)
(0.3033514 3.099976 0.7005985)
(0.493736 3.099953 0.698481)
(0.6977108 3.099986 0.6974024)
(0.899732 3.100302 0.69786)
(1.04953 3.051002 0.6492196)
(1.199918 3.015213 0.6125217)
(1.450113 3.046372 0.6499136)
(1.651817 3.046699 0.649914)
(1.837582 3.027802 0.6249718)
(2.0573 3.05567 0.6488693)
(0.3032139 3.299986 0.7005567)
(0.4929998 3.299978 0.6982493)
(0.6956556 3.300028 0.696656)
(0.8969214 3.300258 0.6963392)
(1.096166 3.300052 0.6970863)
(1.296954 3.297075 0.6975848)
(1.500005 3.294541 0.6977173)
(1.703599 3.296616 0.6976513)
(1.906027 3.301778 0.6971986)
(2.104829 3.302994 0.6958876)
(0.3031459 3.499991 0.7005199)
(0.4926656 3.499972 0.6980327)
(0.6949119 3.499941 0.6959082)
(0.8964497 3.499878 0.6946538)
(1.097124 3.499426 0.6944831)
(1.298146 3.49819 0.6946518)
(1.499973 3.497372 0.6947274)
(1.701944 3.498289 0.6946227)
(1.90313 3.500182 0.6941701)
(2.102684 3.501071 0.6931552)
(0.3031205 3.699993 0.7004979)
(0.4925474 3.699968 0.6978944)
(0.6946877 3.69991 0.6954256)
(0.8964124 3.699769 0.693481)
(1.097599 3.699452 0.6925663)
(1.298641 3.698925 0.6923164)
(1.499785 3.698648 0.6922486)
(1.700842 3.699043 0.6921423)
(1.901436 3.699813 0.6918405)
(2.101314 3.700272 0.691238)
(0.3031147 3.899995 0.7004884)
(0.4925215 3.899972 0.6978256)
(0.6946507 3.89992 0.6951764)
(0.8964473 3.899814 0.6928588)
(1.097791 3.89963 0.6914845)
(1.298795 3.899406 0.6909029)
(1.499599 3.899313 0.6906981)
(1.700217 3.899478 0.6905946)
(1.900555 3.899791 0.6904393)
(2.100569 3.900025 0.6901394)
(0.4523063 0.2583372 0.8499887)
(0.7025359 0.3061738 0.8999476)
(0.9008406 0.3034135 0.8999387)
(1.099961 0.3024827 0.8999339)
(1.299934 0.3022721 0.8999273)
(1.499971 0.302231 0.8999226)
(1.69999 0.3022163 0.8999214)
(1.899999 0.3021973 0.8999191)
(2.100001 0.3021715 0.8999141)
(0.2583397 0.452299 0.8499902)
(0.4994846 0.4995062 0.8998348)
(0.6993637 0.4963628 0.8996555)
(0.8994507 0.4933446 0.8995273)
(1.099614 0.4920961 0.8994598)
(1.299769 0.4917375 0.89943)
(1.499889 0.4916657 0.899419)
(1.699971 0.4916183 0.8994145)
(1.900014 0.4915097 0.899406)
(2.100025 0.4913584 0.8993864)
(0.3061629 0.7025465 0.8999484)
(0.4962965 0.6994347 0.8996602)
(0.6975184 0.6977165 0.8992964)
(0.8984625 0.6960132 0.899016)
(1.099048 0.6952048 0.8988782)
(1.29944 0.6951172 0.8988311)
(1.499751 0.6952309 0.8988171)
(1.699978 0.6951704 0.898806)
(1.900098 0.6948029 0.898776)
(2.100122 0.6942913 0.8987117)
(0.3033977 0.9008652 0.8999447)
(0.4932412 0.8995832 0.8995524)
(0.6956494 0.8988554 0.8990593)
(0.8973396 0.8982421 0.8986907)
(1.098272 0.8983427 0.8985469)
(1.298951 0.8991635 0.8985283)
(1.499602 0.8999272 0.8985298)
(1.700112 0.8999275 0.8985089)
(1.900382 0.8989119 0.8984296)
(2.100408 0.897535 0.8982603)
(0.3024795 1.099994 0.899951)
(0.4920294 1.099783 0.8995304)
(0.6947766 1.099577 0.8990399)
(0.8966467 1.099619 0.8987467)
(1.097444 1.100643 0.898725)
(1.298346 1.102951 0.8987889)
(1.499509 1.104935 0.8988187)
(1.700476 1.105153 0.8987924)
(1.900981 1.102888 0.8986589)
(2.101027 1.100018 0.8983513)
(0.3023251 1.29997 0.8999577)
(0.4919287 1.299917 0.8995668)
(0.6951372 1.299835 0.8991893)
(0.8968945 1.299741 0.8991118)
(1.096623 1.300808 0.8993093)
(1.297655 1.306553 0.8994507)
(1.499552 1.308635 0.8994844)
(1.701077 1.311718 0.8994745)
(1.901796 1.305082 0.8993397)
(2.102031 1.300157 0.8989493)
(0.3024223 1.500009 0.8999643)
(0.4925928 1.500002 0.8996223)
(0.69724 1.499937 0.8993733)
(0.8998087 1.499571 0.8994891)
(1.046902 1.448971 0.8495933)
(1.246375 1.456205 0.8498651)
(1.448459 1.458786 0.8498723)
(1.650858 1.468718 0.8498853)
(1.853335 1.457183 0.8498328)
(2.053526 1.44905 0.8494797)
(0.3026346 1.700032 0.8999729)
(0.4938468 1.700077 0.8996686)
(0.7013833 1.700166 0.8994964)
(0.9093337 1.700095 0.8996596)
(1.058684 1.649354 0.849858)
(1.20412 1.608984 0.812544)
(2.089074 1.699663 0.8995116)
(0.3028643 1.900033 0.8999814)
(0.4951694 1.900085 0.8996989)
(0.7056488 1.900173 0.8995578)
(0.9179108 1.900066 0.8997116)
(1.073214 1.849888 0.8498906)
(2.076144 1.897353 0.8993639)
(0.3030296 2.100022 0.899989)
(0.4960916 2.10006 0.899717)
(0.7084579 2.100155 0.899585)
(0.9224782 2.100223 0.8997171)
(1.120196 2.10277 0.8999852)
(1.921558 2.09843 0.9000164)
(2.089604 2.095782 0.8991409)
(0.303093 2.300001 0.8999946)
(0.4964293 2.299994 0.8997243)
(0.7094867 2.299984 0.8995924)
(0.92446 2.299987 0.8997173)
(1.122012 2.300003 0.8999909)
(1.933858 2.300001 0.9001083)
(2.100684 2.300029 0.8990116)
(0.3030405 2.49998 0.8999948)
(0.4960937 2.499924 0.899717)
(0.7083575 2.4998 0.8995795)
(0.9222387 2.49972 0.8997127)
(1.120025 2.497201 0.8999833)
(1.921578 2.501584 0.9000177)
(2.089715 2.504326 0.8991518)
(0.3028842 2.699966 0.8999881)
(0.4951696 2.699891 0.8996938)
(0.7054218 2.699757 0.8995426)
(0.9172481 2.699818 0.8997007)
(1.075509 2.649741 0.8499016)
(2.076512 2.703027 0.899374)
(0.3026603 2.899962 0.8999771)
(0.4938594 2.899891 0.899654)
(0.7011751 2.89976 0.8994676)
(0.9087313 2.89977 0.8996385)
(1.066674 2.850096 0.8498704)
(2.090834 2.90183 0.8995054)
(0.3024401 3.099972 0.8999637)
(0.4925942 3.09994 0.8995952)
(0.6971164 3.099954 0.899325)
(0.8996079 3.10027 0.8994432)
(1.049514 3.050977 0.8497381)
(1.199917 3.015212 0.812533)
(1.450111 3.046362 0.849971)
(1.651826 3.046692 0.849971)
(1.837588 3.027806 0.8249897)
(2.057372 3.05579 0.84961)
(0.3022891 3.299983 0.8999497)
(0.4917805 3.299966 0.8995225)
(0.6948398 3.299987 0.899109)
(0.8965273 3.30019 0.8990156)
(1.095956 3.299942 0.8992076)
(1.29684 3.296943 0.8993438)
(1.499997 3.294406 0.8993829)
(1.703702 3.296525 0.8993613)
(1.906203 3.301771 0.8992218)
(2.105011 3.303077 0.8988182)
(0.3022121 3.499989 0.8999384)
(0.4913948 3.499963 0.8994572)
(0.693939 3.499913 0.8988937)
(0.8958445 3.499811 0.8985389)
(1.096758 3.499298 0.8984776)
(1.297942 3.498009 0.8985235)
(1.49995 3.497176 0.8985467)
(1.702098 3.49816 0.8985092)
(1.903396 3.50017 0.8983545)
(2.102969 3.501166 0.8980041)
(0.3021819 3.699992 0.8999321)
(0.4912508 3.699963 0.8994167)
(0.6936396 3.699893 0.8987501)
(0.8957 3.699736 0.8981791)
(1.097153 3.699395 0.8978806)
(1.298394 3.698817 0.8977914)
(1.499733 3.698523 0.8977681)
(1.700966 3.698977 0.8977226)
(1.901672 3.699851 0.8975951)
(2.101575 3.700394 0.8973358)
(0.3021739 3.899994 0.8999294)
(0.4912138 3.899968 0.8993962)
(0.6935771 3.899908 0.8986708)
(0.8957032 3.89979 0.8979575)
(1.097325 3.899592 0.8974737)
(1.298534 3.899347 0.897252)
(1.499509 3.899247 0.8971707)
(1.700263 3.899444 0.8971137)
(1.900685 3.899812 0.8970171)
(2.10072 3.900077 0.8968431)
(0.4522969 0.2583272 1.050002)
(0.7025409 0.306089 1.100114)
(0.9008485 0.303274 1.100171)
(1.09996 0.3023138 1.100188)
(1.299931 0.3020926 1.100185)
(1.499971 0.3020501 1.100182)
(1.69999 0.3020361 1.10018)
(1.899998 0.3020164 1.100174)
(2.100001 0.3019891 1.100166)
(0.2583341 0.4523013 1.050001)
(0.4994367 0.4994584 1.100219)
(0.6993206 0.4962196 1.100458)
(0.8994244 0.4931023 1.100616)
(1.0996 0.4917982 1.100684)
(1.299762 0.491416 1.100699)
(1.499887 0.4913383 1.100695)
(1.699971 0.4912917 1.100691)
(1.900014 0.4911837 1.100688)
(2.100025 0.4910314 1.100693)
(0.306078 0.7025508 1.100109)
(0.4961553 0.6993901 1.10045)
(0.6974021 0.6975936 1.100884)
(0.8983984 0.6958037 1.101187)
(1.099019 0.6949355 1.101316)
(1.299427 0.6948165 1.101344)
(1.499746 0.694919 1.10134)
(1.699976 0.6948605 1.101337)
(1.900098 0.6944986 1.101355)
(2.100123 0.6939917 1.101406)
(0.3032598 0.9008737 1.100165)
(0.493007 0.8995547 1.100594)
(0.6954608 0.8987795 1.101147)
(0.8972374 0.8981081 1.101513)
(1.098228 0.8981614 1.101628)
(1.298933 0.8989534 1.101619)
(1.499595 0.8997057 1.101598)
(1.70011 0.8997109 1.101604)
(1.900382 0.8987069 1.101673)
(2.100409 0.8973388 1.101833)
(0.3023143 1.099994 1.100188)
(0.4917488 1.099766 1.100633)
(0.6945501 1.099534 1.101164)
(0.8965281 1.099542 1.101425)
(1.097397 1.100539 1.101398)
(1.29833 1.102828 1.101302)
(1.499503 1.104804 1.101254)
(1.700474 1.10503 1.10127)
(1.900982 1.102777 1.101395)
(2.101029 1.099914 1.101696)
(0.3021505 1.299966 1.100179)
(0.4916327 1.299906 1.100587)
(0.6949048 1.299812 1.100995)
(0.8967855 1.299704 1.101019)
(1.096589 1.300763 1.100762)
(1.297647 1.306504 1.100592)
(1.499549 1.308583 1.100549)
(1.701075 1.311671 1.100553)
(1.901796 1.305041 1.100682)
(2.102034 1.300116 1.101064)
(0.3022468 1.500007 1.100155)
(0.4922958 1.499996 1.100512)
(0.6970162 1.499926 1.100786)
(0.8997218 1.499556 1.100603)
(1.046883 1.448968 1.050128)
(1.246375 1.456207 1.050045)
(1.448461 1.458786 1.05001)
(1.650862 1.468722 1.050001)
(1.85334 1.457186 1.050014)
(2.05353 1.449046 1.050153)
(0.3024611 1.700032 1.100143)
(0.493556 1.700075 1.100458)
(0.701172 1.700162 1.100649)
(0.9092602 1.70009 1.100413)
(1.058686 1.649355 1.05003)
(1.20412 1.608984 1.012545)
(2.089085 1.69966 1.100449)
(0.3026941 1.900034 1.100143)
(0.4948888 1.900086 1.100435)
(0.7054521 1.900171 1.100587)
(0.917847 1.900064 1.100354)
(1.07324 1.849895 1.049979)
(2.076162 1.897352 1.100563)
(0.3028698 2.100016 1.100144)
(0.4958297 2.100061 1.100433)
(0.7082838 2.100154 1.100566)
(0.9224255 2.100221 1.100349)
(1.12019 2.102769 1.100022)
(1.921563 2.098431 1.09996)
(2.089633 2.095781 1.100748)
(0.3029608 2.299973 1.100135)
(0.4962088 2.299995 1.100439)
(0.7093499 2.299981 1.100562)
(0.9244259 2.299984 1.100346)
(1.12201 2.300002 1.100014)
(1.933865 2.300001 1.099858)
(2.100717 2.300029 1.100864)
(0.3029508 2.499928 1.100118)
(0.4959467 2.499921 1.100434)
(0.7082729 2.499794 1.100559)
(0.9222225 2.499716 1.100344)
(1.120025 2.4972 1.100021)
(1.921582 2.501583 1.099961)
(2.089739 2.504327 1.100754)
(0.302836 2.699914 1.1001)
(0.4951036 2.699886 1.100419)
(0.7053891 2.699749 1.100565)
(0.9172463 2.699814 1.100344)
(1.075563 2.649738 1.049984)
(2.076525 2.703029 1.100576)
(0.3026421 2.899933 1.100079)
(0.4938451 2.899888 1.100423)
(0.7011739 2.899753 1.100615)
(0.9087364 2.899765 1.100402)
(1.066691 2.850096 1.049993)
(2.090844 2.901833 1.100478)
(0.3024387 3.099965 1.100064)
(0.4925997 3.099938 1.100465)
(0.6971257 3.099948 1.100757)
(0.8996124 3.100264 1.100621)
(1.049512 3.050973 1.050073)
(1.199917 3.015212 1.01254)
(1.450111 3.04636 1.050008)
(1.651827 3.04669 1.050008)
(1.837589 3.027806 1.025001)
(2.057381 3.055809 1.050154)
(0.3022928 3.299983 1.100069)
(0.4917903 3.299964 1.100543)
(0.6948508 3.299983 1.10101)
(0.8965311 3.300184 1.101131)
(1.095952 3.299938 1.100938)
(1.296835 3.296942 1.100801)
(1.499995 3.294407 1.100765)
(1.703704 3.296529 1.100788)
(1.906208 3.301777 1.10093)
(2.105019 3.303084 1.101338)
(0.3022161 3.499988 1.100085)
(0.4914051 3.499962 1.100632)
(0.6939504 3.49991 1.101291)
(0.895849 3.499807 1.101736)
(1.096755 3.499295 1.101858)
(1.297936 3.498008 1.101848)
(1.499946 3.497178 1.10184)
(1.702099 3.498165 1.101874)
(1.903401 3.500177 1.102013)
(2.102977 3.501173 1.102341)
(0.3021858 3.699991 1.100097)
(0.4912602 3.699962 1.1007)
(0.6936495 3.699891 1.101505)
(0.895704 3.699734 1.102228)
(1.09715 3.699392 1.102649)
(1.298389 3.698816 1.102814)
(1.49973 3.698524 1.102864)
(1.700966 3.698979 1.102892)
(1.901674 3.699855 1.10297)
(2.101579 3.700398 1.103161)
(0.3021767 3.899993 1.100103)
(0.4912195 3.899968 1.100739)
(0.6935817 3.899907 1.10163)
(0.8957035 3.899789 1.102528)
(1.097321 3.89959 1.103167)
(1.298528 3.899345 1.103481)
(1.499505 3.899246 1.103582)
(1.700262 3.899445 1.103593)
(1.900687 3.899813 1.103596)
(2.100723 3.900079 1.103648)
(0.4523111 0.2583368 1.250021)
(0.702543 0.306192 1.300398)
(0.9008462 0.3034305 1.300554)
(1.099961 0.3025 1.300593)
(1.299934 0.302292 1.300575)