/*--------------------------------*- C++ -*----------------------------------*\
  =========                 |
  \\      /  F ield         | OpenFOAM: The Open Source CFD Toolbox
   \\    /   O peration     | Website:  https://openfoam.org
    \\  /    A nd           | Version:  7
     \\/     M anipulation  |
\*---------------------------------------------------------------------------*/
FoamFile
{
    version     2.0;
    format      ascii;
    class       volScalarField;
    location    "0.1";
    object      Cx;
}
// * * * * * * * * * * * * * * * * * * * * * * * * * * * * * * * * * * * * * //

dimensions      [0 1 0 0 0 0 0];

internalField   nonuniform List<scalar> 
82743
(
0.4992669
0.6997331
0.8997461
1.099898
1.299967
1.499988
1.699995
1.899997
2.099996
0.4996256
0.6996093
0.8995269
1.099796
1.299929
1.499974
1.699986
1.899993
2.099992
0.4995732
0.6995147
0.8993574
1.099673
1.299874
1.499954
1.699982
1.90002
2.100044
0.4994783
0.6991903
0.8987122
1.098999
1.299597
1.499923
1.699991
1.900289
2.100647
0.4994692
0.6989082
0.8966799
1.096592
1.299415
1.499913
1.699959
1.90057
2.102827
0.4995566
0.6990549
0.8979053
1.043977
1.247416
1.448791
1.648973
1.850182
2.051512
0.4997075
0.6994376
0.898911
1.044014
1.20365
2.050558
0.4998433
0.6997989
0.9003083
1.045453
1.204251
2.094716
0.4999215
0.7000304
0.9007065
1.04562
1.204251
2.092365
0.4999463
0.700097
0.9007892
1.045645
1.204251
2.092409
0.4999182
0.7000202
0.9006888
1.045636
1.204251
2.093946
0.4998383
0.6997837
0.9002769
1.045567
1.204251
2.050353
0.499707
0.6994535
0.8990778
1.045144
1.204249
2.051154
0.499558
0.6990933
0.8982098
1.044147
1.205128
1.412638
1.611192
1.81298
2.052158
0.4994558
0.6989155
0.8968
1.096877
1.299235
1.500042
1.700776
1.90148
2.10309
0.4994199
0.6991286
0.8986875
1.098997
1.299541
1.499983
1.700251
1.900574
2.100799
0.499419
0.6993521
0.8992442
1.099604
1.299831
1.499973
1.700071
1.900124
2.100115
0.499419
0.6993698
0.8992877
1.099662
1.299867
1.499963
1.700013
1.900031
2.100023
0.450759
0.6504192
0.8500161
1.049986
1.249991
1.449993
1.649994
1.849995
2.049995
0.259072
0.500061
0.6995425
0.8996894
1.099829
1.299915
1.499963
1.699989
1.9
2.100001
0.2584721
0.4995576
0.6989539
0.8993261
1.09962
1.299803
1.499918
1.699987
1.900021
2.100023
0.2581551
0.498966
0.6984414
0.8989925
1.09937
1.29965
1.499871
1.700022
1.900095
2.100094
0.2580897
0.4987278
0.6982091
0.8987371
1.098954
1.299359
1.499829
1.700177
1.900323
2.100332
0.2580822
0.4987448
0.6983012
0.8985043
1.097741
1.298563
1.499808
1.70069
1.901044
2.101176
0.258086
0.4990212
0.6991279
0.8995644
1.04716
1.24664
1.448938
1.650795
1.85283
2.052495
0.2580964
0.4995567
0.7010302
0.90574
1.056101
1.20411
2.091926
0.2581089
0.5000954
0.7029028
0.910806
1.066179
2.078288
0.2581178
0.5004206
0.7038843
0.9124493
1.067993
2.077082
0.2581217
0.5005225
0.7041763
0.9128831
1.068398
2.07802
0.2581204
0.5004053
0.7038341
0.9123547
1.068239
2.077385
0.258114
0.5000682
0.7028023
0.9105211
1.067205
2.078944
0.2581031
0.4995373
0.7009843
0.9057297
1.063041
2.092946
0.2580905
0.4990073
0.6991519
0.899951
1.05021
1.205524
1.450434
1.651498
1.835152
2.103702
0.2580817
0.498692
0.6982564
0.8986253
1.097946
1.298367
1.500089
1.702255
1.903711
2.102402
0.2580775
0.498561
0.6979932
0.8985882
1.098864
1.299276
1.500027
1.700847
1.901292
2.100953
0.2580765
0.498518
0.6979217
0.8986127
1.099134
1.299538
1.499938
1.70029
1.900468
2.100386
0.2580786
0.4985138
0.6979087
0.8986316
1.099213
1.299599
1.499874
1.700068
1.900163
2.100152
0.4517887
0.7013551
0.9003733
1.099964
1.299962
1.499984
1.699994
1.899999
2.1
0.2586916
0.5001348
0.69968
0.8996438
1.099747
1.299852
1.49993
1.699982
1.900007
2.100014
0.3080868
0.4985362
0.6986806
0.899069
1.099397
1.299646
1.499846
1.699989
1.900062
2.100072
0.3066198
0.4968842
0.6976523
0.8984163
1.09891
1.299331
1.499753
1.700081
1.900242
2.100245
0.3061078
0.4962482
0.6971612
0.897941
1.098203
1.298817
1.499679
1.700377
1.900722
2.100732
0.3060356
0.4962271
0.6973613
0.8977856
1.097035
1.297924
1.49966
1.701011
1.901625
2.10186
0.306113
0.4967119
0.6988425
0.8998198
1.046915
1.24639
1.44848
1.650861
1.853265
2.053428
0.306271
0.4976536
0.7020428
0.9083123
1.058188
1.204117
2.08956
0.3064368
0.4986295
0.7052775
0.9156382
1.071788
2.075104
0.3065484
0.4992632
0.7071866
0.9185378
1.117735
1.914797
2.081009
0.3065861
0.499474
0.7078193
0.9196401
1.118608
1.920381
2.086524
0.3065439
0.4992333
0.707085
0.9183402
1.117592
1.914822
2.081149
0.3064284
0.4985731
0.7050614
0.9150695
1.07343
2.075462
0.3062616
0.4975989
0.7018574
0.9078645
1.066017
2.091123
0.306099
0.4966578
0.6987575
0.8998298
1.049581
1.199936
1.450143
1.651746
1.83742
2.056783
0.3059933
0.4960923
0.6971789
0.897679
1.0967
1.297317
1.500026
1.703234
1.905403
2.104191
0.3059434
0.4958538
0.6966684
0.897532
1.097868
1.298599
1.500006
1.701535
1.902436
2.101975
0.3059259
0.4957776
0.6965314
0.8975578
1.098362
1.299071
1.499865
1.700596
1.90099
2.10087
0.3059234
0.4957679
0.6965156
0.8976031
1.098528
1.2992
1.499738
1.700147
1.900364
2.100361
0.4522729
0.7023606
0.900703
1.099964
1.299944
1.499975
1.699992
1.899999
2.100001
0.2584
0.4996977
0.6995129
0.8995404
1.099669
1.299801
1.499905
1.699975
1.900013
2.100022
0.3066741
0.4969414
0.6979724
0.8987162
1.099185
1.299516
1.499786
1.699984
1.90009
2.100109
0.3041675
0.4942974
0.696411
0.897768
1.098502
1.299081
1.499656
1.70011
1.90035
2.100371
0.3034008
0.4932713
0.6956713
0.8971332
1.097698
1.298491
1.499566
1.700459
1.900925
2.100967
0.3032746
0.4931983
0.6959641
0.8972371
1.096761
1.297727
1.499582
1.701069
1.901767
2.102017
0.3033664
0.4938083
0.6978766
0.8999103
1.046929
1.24638
1.44846
1.650852
1.853321
2.053522
0.303563
0.4949694
0.7017705
0.9091941
1.058605
1.204119
2.089128
0.3037739
0.4961869
0.7057574
0.9174728
1.072954
2.075772
0.3039221
0.4970167
0.7083055
0.9216042
1.119604
1.920874
2.087597
0.3039746
0.4973064
0.7092099
0.9233544
1.121301
1.932935
2.097488
0.3039195
0.4969868
0.7081822
0.921362
1.119434
1.920895
2.087713
0.3037687
0.4961288
0.7054917
0.9168101
1.075085
2.076134
0.3035568
0.4949088
0.7015157
0.908599
1.066556
2.09085
0.3033514
0.493736
0.6977108
0.899732
1.04953
1.199918
1.450113
1.651817
1.837582
2.0573
0.3032139
0.4929998
0.6956556
0.8969214
1.096166
1.296954
1.500005
1.703599
1.906027
2.104829
0.3031459
0.4926656
0.6949119
0.8964497
1.097124
1.298146
1.499973
1.701944
1.90313
2.102684
0.3031205
0.4925474
0.6946877
0.8964124
1.097599
1.298641
1.499785
1.700842
1.901436
2.101314
0.3031147
0.4925215
0.6946507
0.8964473
1.097791
1.298795
1.499599
1.700217
1.900555
2.100569
0.4523063
0.7025359
0.9008406
1.099961
1.299934
1.499971
1.69999
1.899999
2.100001
0.2583397
0.4994846
0.6993637
0.8994507
1.099614
1.299769
1.499889
1.699971
1.900014
2.100025
0.3061629
0.4962965
0.6975184
0.8984625
1.099048
1.29944
1.499751
1.699978
1.900098
2.100122
0.3033977
0.4932412
0.6956494
0.8973396
1.098272
1.298951
1.499602
1.700112
1.900382
2.100408
0.3024795
0.4920294
0.6947766
0.8966467
1.097444
1.298346
1.499509
1.700476
1.900981
2.101027
0.3023251
0.4919287
0.6951372
0.8968945
1.096623
1.297655
1.499552
1.701077
1.901796
2.102031
0.3024223
0.4925928
0.69724
0.8998087
1.046902
1.246375
1.448459
1.650858
1.853335
2.053526
0.3026346
0.4938468
0.7013833
0.9093337
1.058684
1.20412
2.089074
0.3028643
0.4951694
0.7056488
0.9179108
1.073214
2.076144
0.3030296
0.4960916
0.7084579
0.9224782
1.120196
1.921558
2.089604
0.303093
0.4964293
0.7094867
0.92446
1.122012
1.933858
2.100684
0.3030405
0.4960937
0.7083575
0.9222387
1.120025
1.921578
2.089715
0.3028842
0.4951696
0.7054218
0.9172481
1.075509
2.076512
0.3026603
0.4938594
0.7011751
0.9087313
1.066674
2.090834
0.3024401
0.4925942
0.6971164
0.8996079
1.049514
1.199917
1.450111
1.651826
1.837588
2.057372
0.3022891
0.4917805
0.6948398
0.8965273
1.095956
1.29684
1.499997
1.703702
1.906203
2.105011
0.3022121
0.4913948
0.693939
0.8958445
1.096758
1.297942
1.49995
1.702098
1.903396
2.102969
0.3021819
0.4912508
0.6936396
0.8957
1.097153
1.298394
1.499733
1.700966
1.901672
2.101575
0.3021739
0.4912138
0.6935771
0.8957032
1.097325
1.298534
1.499509
1.700263
1.900685
2.10072
0.4522969
0.7025409
0.9008485
1.09996
1.299931
1.499971
1.69999
1.899998
2.100001
0.2583341
0.4994367
0.6993206
0.8994244
1.0996
1.299762
1.499887
1.699971
1.900014
2.100025
0.306078
0.4961553
0.6974021
0.8983984
1.099019
1.299427
1.499746
1.699976
1.900098
2.100123
0.3032598
0.493007
0.6954608
0.8972374
1.098228
1.298933
1.499595
1.70011
1.900382
2.100409
0.3023143
0.4917488
0.6945501
0.8965281
1.097397
1.29833
1.499503
1.700474
1.900982
2.101029
0.3021505
0.4916327
0.6949048
0.8967855
1.096589
1.297647
1.499549
1.701075
1.901796
2.102034
0.3022468
0.4922958
0.6970162
0.8997218
1.046883
1.246375
1.448461
1.650862
1.85334
2.05353
0.3024611
0.493556
0.701172
0.9092602
1.058686
1.20412
2.089085
0.3026941
0.4948888
0.7054521
0.917847
1.07324
2.076162
0.3028698
0.4958297
0.7082838
0.9224255
1.12019
1.921563
2.089633
0.3029608
0.4962088
0.7093499
0.9244259
1.12201
1.933865
2.100717
0.3029508
0.4959467
0.7082729
0.9222225
1.120025
1.921582
2.089739
0.302836
0.4951036
0.7053891
0.9172463
1.075563
2.076525
0.3026421
0.4938451
0.7011739
0.9087364
1.066691
2.090844
0.3024387
0.4925997
0.6971257
0.8996124
1.049512
1.199917
1.450111
1.651827
1.837589
2.057381
0.3022928
0.4917903
0.6948508
0.8965311
1.095952
1.296835
1.499995
1.703704
1.906208
2.105019
0.3022161
0.4914051
0.6939504
0.895849
1.096755
1.297936
1.499946
1.702099
1.903401
2.102977
0.3021858
0.4912602
0.6936495
0.895704
1.09715
1.298389
1.49973
1.700966
1.901674
2.101579
0.3021767
0.4912195
0.6935817
0.8957035
1.097321
1.298528
1.499505
1.700262
1.900687
2.100723
0.4523111
0.702543
0.9008462
1.099961
1.299934
1.499976
1.699992
1.899993
2.099998
0.2583292
0.4995107
0.6993859
0.8994716
1.099631
1.299781
1.499897
1.699974
1.900013
2.100023
0.306178
0.4963425
0.6975879
0.8985316
1.099105
1.299483
1.499774
1.699982
1.900091
2.100111
0.3034172
0.4933141
0.6957851
0.8974716
1.098384
1.299036
1.499641
1.700106
1.900351
2.100374
0.3025031
0.4921158
0.694928
0.896792
1.097576
1.298451
1.499552
1.700455
1.900926
2.100973
0.302345
0.4919895
0.6952013
0.8969233
1.096674
1.297709
1.499576
1.701063
1.901767
2.102026
0.3024338
0.4925956
0.6971373
0.8996579
1.04689
1.246384
1.448468
1.650866
1.853343
2.053543
0.3026402
0.4937809
0.7010687
0.9089801
1.058649
1.20412
2.089169
0.3028638
0.4950338
0.7051024
0.91729
1.073128
2.075843
0.303044
0.4959244
0.7077276
0.9214673
1.119596
1.920896
2.087714
0.3032679
0.4963719
0.7087645
0.9232877
1.121312
1.932966
2.097623
0.3034698
0.4963753
0.7079264
0.9213538
1.119451
1.920914
2.08781
0.3034899
0.4958828
0.7054212
0.9168409
1.07541
2.076186
0.3034472
0.4948776
0.7015442
0.9086372
1.066654
2.090891
0.3033574
0.4937719
0.6977594
0.8997505
1.049529
1.199918
1.450112
1.651826
1.837589
2.05737
0.3032324
0.493044
0.6957011
0.8969333
1.096144
1.29693
1.499995
1.703608
1.906053
2.104865
0.3031646
0.4927093
0.6949562
0.8964667
1.097111
1.298124
1.499961
1.701948
1.903147
2.102709
0.3031395
0.4925889
0.694728
0.89643
1.097593
1.298626
1.499776
1.700842
1.901445
2.101329
0.3031314
0.4925532
0.6946761
0.8964549
1.097783
1.298783
1.49959
1.700215
1.90056
2.100578
0.4523123
0.7023368
0.9007139
1.099955
1.299942
1.500006
1.700002
1.899964
2.099986
0.2583511
0.4997249
0.6995205
0.8995692
1.099701
1.299825
1.499918
1.69998
1.900013
2.100017
0.3066937
0.496998
0.6980455
0.8988305
1.099305
1.299609
1.499832
1.699988
1.900069
2.100078
0.3042005
0.4944356
0.6966273
0.8980345
1.098776
1.299284
1.499739
1.700083
1.900248
2.100253
0.3034539
0.4934786
0.6959761
0.8975126
1.098072
1.298778
1.499669
1.700379
1.900726
2.100744
0.3033194
0.49336
0.6961408
0.8973965
1.096963
1.297924
1.499655
1.700996
1.901621
2.101881
0.3033869
0.4938279
0.697643
0.8995102
1.04693
1.24641
1.448486
1.650877
1.853336
2.053551
0.3035767
0.4948379
0.7009034
0.9080566
1.058487
1.20412
2.089684
0.303779
0.4958998
0.7042245
0.915437
1.072603
2.075321
0.3039417
0.4966409
0.7062946
0.918483
1.117809
1.914867
2.081341
0.3042684
0.4971849
0.7072013
0.9197797
1.118751
1.920465
2.086886
0.3057226
0.4977958
0.7068408
0.9185707
1.117741
1.91488
2.081411
0.3052674
0.4981641
0.7051556
0.9153293
1.074664
2.075606
0.3061773
0.4976615
0.7020677
0.9080487
1.066462
2.091268
0.3061778
0.4968188
0.6989235
0.89987
1.049541
1.199919
1.450116
1.651814
1.837585
2.057292
0.3060622
0.4962263
0.6972975
0.8976962
1.096595
1.297204
1.499984
1.703263
1.905489
2.104275
0.3060118
0.4959813
0.6967776
0.8975696
1.097832
1.29854
1.499977
1.701545
1.902474
2.102025
0.3060008
0.4959072
0.6966343
0.8976018
1.098358
1.299049
1.499851
1.700598
1.901006
2.100893
0.3060032
0.4958915
0.6965969
0.8976349
1.098529
1.299189
1.49973
1.700147
1.900371
2.100373
0.4520412
0.7011529
0.9004256
1.099909
1.299919
1.500075
1.70003
1.899882
2.099983
0.2585132
0.4997281
0.6995093
0.8996493
1.099798
1.299892
1.499934
1.699983
1.900034
2.100014
0.3079513
0.4979133
0.69851
0.8991882
1.099573
1.299783
1.499907
1.699992
1.900038
2.100034
0.3065279
0.496429
0.6977214
0.8987777
1.099301
1.29962
1.499867
1.700038
1.900111
2.100106
0.3060937
0.4960642
0.6974357
0.8985253
1.098905
1.29933
1.499832
1.700209
1.900341
2.100351
0.3060033
0.4959415
0.6975002
0.8983649
1.097802
1.298592
1.499822
1.700697
1.901037
2.101217
0.3060009
0.4960878
0.6983195
0.8995645
1.04712
1.246538
1.448613
1.650905
1.853221
2.053316
0.3061541
0.4967985
0.7002999
0.905845
1.057751
1.204119
2.092402
0.3062608
0.4975896
0.702296
0.9109228
1.07028
2.079259
0.3064499
0.4979943
0.7035558
0.9129709
1.073128
2.078363
0.3067008
0.4985844
0.7042855
0.9139986
1.07451
2.079317
0.3069865
0.4994732
0.7043441
0.9134352
1.074073
2.078371
0.25575
0.50017
0.7035546
0.9116937
1.072194
2.079402
0.2561931
0.500004
0.7016427
0.9064724
1.065623
2.093537
0.2564492
0.4995522
0.6995341
0.900043
1.049493
1.199924
1.450135
1.65172
1.837555
2.05673
0.2563587
0.4990066
0.6984807
0.89866
1.09762
1.297961
1.499962
1.7023
1.903831
2.102701
0.2563265
0.4989165
0.6982026
0.8986576
1.098807
1.299177
1.499984
1.700858
1.90134
2.10103
0.2563632
0.4988948
0.698124
0.8986886
1.099138
1.299516
1.499925
1.700294
1.900484
2.100409
0.2563629
0.4989068
0.698078
0.8986914
1.099225
1.299595
1.49987
1.70007
1.90017
2.100162
0.4508996
0.6514608
0.849201
1.049001
1.248922
1.448993
1.649321
1.84872
2.048979
0.2579762
0.4998491
0.6999312
0.8997141
1.099942
1.300001
1.49996
1.699985
1.900047
2.100006
0.2569697
0.4997029
0.6996451
0.8995324
1.099807
1.299935
1.499977
1.699997
1.900006
2.099999
0.2555944
0.4996143
0.6995316
0.8993776
1.099675
1.299857
1.499957
1.700012
1.900042
2.100055
0.2558085
0.5002936
0.6993344
0.898788
1.099022
1.299542
1.499932
1.700075
1.900326
2.100665
0.2557915
0.4998623
0.6990331
0.8968563
1.096737
1.299235
1.499955
1.700213
1.900596
2.102864
0.2554228
0.4993276
0.6991091
0.8983912
1.048614
1.247837
1.449531
1.650488
1.851946
2.051519
0.2555397
0.4995809
0.6995376
0.8997715
1.055137
1.20413
2.049226
0.256191
0.5000789
0.6999947
0.9008565
1.060266
2.040212
0.2557703
0.5001597
0.7005998
0.902051
1.061378
2.038134
0.2557584
0.5012192
0.7012473
0.90353
1.064636
2.03813
0.2567132
0.5020388
0.7014571
0.9029783
1.063378
2.038016
0.2565727
0.5015361
0.7011947
0.9031732
1.063813
2.038464
0.2338067
0.5007244
0.7004655
0.9011982
1.062067
2.044703
0.2346767
0.5003639
0.6995576
0.898671
1.04988
1.200002
1.44984
1.651321
1.836967
2.05324
0.2338823
0.4998364
0.6991496
0.8969162
1.096678
1.298896
1.499943
1.700814
1.901609
2.103255
0.233619
0.5001678
0.6993853
0.8987804
1.098985
1.299489
1.49996
1.700259
1.900603
2.100835
0.2342907
0.5001881
0.699592
0.8993266
1.099621
1.299825
1.499969
1.700074
1.900132
2.100124
0.2336891
0.4999681
0.6995168
0.8993427
1.099677
1.299868
1.499963
1.700014
1.900034
2.100027
0.3481458
0.3775773
0.2333128
0.347523
0.4503371
0.551004
0.4260251
0.5755734
0.448829
0.5494723
0.6489444
0.7508801
0.6245028
0.775548
0.649758
0.7498459
0.8489653
0.9509465
0.8244693
0.9755348
0.8499438
0.949933
1.049004
1.150971
1.024463
1.175535
1.049997
1.14996
1.249018
1.350977
1.224464
1.375536
1.250014
1.34997
1.449021
1.550978
1.424464
1.575536
1.45002
1.549974
1.649021
1.750979
1.624464
1.775536
1.650023
1.749976
1.849022
1.950978
1.824464
1.975536
1.850025
1.949975
2.049022
2.024464
2.050026
0.3465819
0.3489463
0.2340764
0.3483365
0.2335939
0.348175
0.3492125
0.3493184
0.2335825
0.348036
0.2335557
0.3479206
0.3493037
0.3492953
0.2335521
0.3478662
0.2335451
0.3478253
0.3492899
0.3492871
0.2335447
0.3478101
0.233544
0.3478022
0.3492873
0.3492903
0.2335439
0.3478016
0.2335442
0.3478085
0.3492928
0.349298
0.2335444
0.3478158
0.2335453
0.3478342
1.35071
1.203244
1.247545
1.349283
1.201401
1.751333
1.650351
1.750779
1.953615
1.977654
1.852059
1.953009
1.978885
0.3493015
0.3493069
0.2335455
0.3478473
0.2335468
0.3478719
1.204251
1.204107
0.3493098
0.3493132
0.233547
0.3478844
0.2335479
0.3479011
1.204251
0.3493147
0.3493162
0.2335481
0.3479086
0.2335485
0.3479163
1.204251
0.3493166
0.3493166
0.2335486
0.3479186
0.2335486
0.3479184
1.204251
0.3493161
0.3493146
0.2335485
0.3479158
0.2335481
0.3479077
1.204251
0.3493129
0.3493096
0.2335479
0.3478999
0.2335469
0.3478832
1.20425
0.3493067
0.3493014
0.2335467
0.3478707
0.2335455
0.3478472
1.203544
1.977141
1.978652
1.941237
1.953023
0.3492979
0.3492928
0.2335452
0.3478338
0.2335442
0.3478152
0.3492897
0.3492855
0.2335441
0.347806
0.2335436
0.3477954
0.3492833
0.3492807
0.2335435
0.3477908
0.2335433
0.3477863
0.3492798
0.349279
0.2335433
0.3477854
0.2335435
0.3477851
0.3492794
0.349281
0.2335438
0.3477881
0.3477939
0.3771642
0.2341556
0.3493217
0.3789767
0.2337338
0.3496409
1.348719
1.201394
1.246496
1.348431
1.201408
1.954584
1.979553
1.853219
1.955057
1.979826
1.204119
1.207591
1.202537
1.932991
1.952886
1.930157
1.952398
1.376158
1.245966
1.347532
1.199951
1.375396
1.244391
1.34647
0.3789803
0.2337269
0.3496651
0.3790138
0.2337077
0.3496343
1.348444
1.201406
1.246415
1.348396
1.20141
1.955298
1.979865
1.853334
1.955304
1.979839
1.20412
1.202531
1.202529
1.929661
1.952563
1.929634
1.952703
1.375346
1.243748
1.346142
1.19992
1.375314
1.243594
1.345957
1.985053
1.859722
1.959972
1.837576
1.985622
1.860059
1.960328
0.3790235
0.2337031
0.3496057
0.3790399
0.2336968
0.3495775
1.348414
1.201409
1.246391
1.348392
1.201409
1.955354
1.979852
1.853343
1.955334
1.979843
1.20412
1.202528
1.202528
1.375313
1.24349
1.345938
1.199918
1.375311
1.243477
1.345893
1.985689
1.860149
1.960535
1.837588
1.98574
1.860226
1.960581
0.3790434
0.2336954
0.3495733
0.3790302
0.2337008
0.3495721
1.348398
1.201409
1.246377
1.348391
1.201409
1.95535
1.97985
1.85334
1.955343
1.979848
1.20412
1.202528
1.202528
1.375311
1.243449
1.345897
1.199917
1.375311
1.243448
1.345886
1.985752
1.860234
1.960628
1.837589
1.985758
1.86025
1.960633
0.3790267
0.2336997
0.3495672
0.3790395
0.2336951
0.3495553
1.34839
1.201409
1.24637
1.348397
1.201409
1.955343
1.979848
1.853335
1.955352
1.979851
1.20412
1.202528
1.202528
1.375311
1.243448
1.345885
1.199917
1.375311
1.243446
1.345895
1.985758
1.860252
1.960634
1.837589
1.985758
1.860237
1.960635
0.3790489
0.2336926
0.3495542
0.3790568
0.2336939
0.3495731
1.34839
1.201409
1.246371
1.348414
1.201408
1.955338
1.979846
1.853322
1.955361
1.979858
1.204119
1.202528
1.202527
1.375311
1.24347
1.345887
1.199917
1.375312
1.243468
1.345924
1.985749
1.860237
1.960598
1.837586
1.985735
1.860175
1.960578
0.3790501
0.2336951
0.3495753
0.3790147
0.2337052
0.3495951
1.348398
1.201409
1.246397
1.348454
1.201406
1.955315
1.979847
1.853266
1.955319
1.979894
1.204118
1.202528
1.202527
1.375312
1.243537
1.345916
1.199919
1.375317
1.243579
1.346025
1.985706
1.860131
1.960434
1.837569
1.985611
1.859888
1.960233
0.3790033
0.2337075
0.3495879
0.3788948
0.2337035
0.349447
1.348463
1.201409
1.246774
1.348798
1.201408
1.955095
1.979872
1.852824
1.954653
1.979755
1.204123
1.20253
1.20253
1.375321
1.243858
1.346118
1.199962
1.375322
1.244418
1.346653
1.985476
1.859482
1.959556
1.837309
1.984333
1.85815
1.958121
0.3786641
0.233606
0.3484537
0.374953
0.3491325
1.750805
1.649867
1.750093
1.648949
1.751055
1.950978
1.850068
1.950025
1.849026
1.951002
0.3477661
0.2558367
0.3470302
0.3507514
0.3503597
0.3468277
0.2555805
0.3470172
0.3503562
0.3509522
0.3465743
0.2554209
0.3465314
0.3502875
0.350156
1.349234
1.201422
1.24777
1.350559
1.204118
1.550216
1.448706
1.551214
1.750674
1.649231
1.751291
1.953115
1.979234
1.849964
1.953723
1.978609
0.3467353
0.2558886
0.3474002
0.3502396
0.3506991
1.20567
1.204731
1.204467
1.204269
1.204279
1.210586
1.21059
1.205602
0.3492778
0.2340714
0.3492175
0.3512996
0.3503426
1.202545
1.203704
1.941579
1.953477
1.978088
1.978898
0.3508269
0.2343723
0.3503583
0.3517239
0.3511718
1.375222
1.246183
1.347635
1.20482
1.387475
1.24722
1.350153
1.982902
1.855408
1.954885
1.814229
1.978822
1.850972
1.953973
0.3486502
0.2335945
0.3481682
0.3498061
0.3495497
0.3486292
0.2342897
0.3498257
0.3502155
0.230383
0.3522111
0.3498429
0.2336589
0.348736
0.2303829
0.3522163
0.3502568
0.3487619
0.2349016
0.3503008
0.3499234
0.3511499
0.2663196
0.2682703
0.4747272
0.4242515
0.4244064
0.4755396
0.6749672
0.6243308
0.6249364
0.6754294
0.8749929
0.8243573
0.8249855
0.8754491
1.074998
1.024367
1.024995
1.075454
1.274999
1.224369
1.224997
1.275455
1.475
1.42437
1.424997
1.475455
1.675
1.624369
1.624998
1.675455
1.875
1.82437
1.824998
1.875455
2.075
2.02437
2.024998
2.075455
0.2654379
0.2666551
0.2655404
0.2667038
0.2653622
0.2670684
0.26539
0.2671068
0.2653493
0.2670834
0.2653648
0.2671094
0.2653467
0.2670802
0.2653594
0.2671085
0.2653467
0.2670799
0.2653587
0.2671087
0.2653478
0.2670803
0.2653595
0.2671093
1.147071
1.043508
1.169201
1.048111
1.14594
1.048687
1.16683
1.55108
1.449551
1.550122
0.2653492
0.267081
0.2653611
0.2671099
1.170584
1.045053
1.171691
1.053646
1.178185
1.057912
1.190884
1.204218
1.203528
1.208817
1.976841
1.951265
1.950113
1.94004
0.2653506
0.2670816
0.2653628
0.2671103
1.171721
1.045578
1.171739
1.059682
1.191297
1.060242
1.191559
1.204252
1.20898
1.208981
1.948657
1.950699
1.931974
1.929408
0.2653514
0.267082
0.2653639
0.2671105
1.17174
1.045638
1.171741
1.060447
1.191567
1.06054
1.191592
1.204252
1.208981
1.208981
1.950721
1.950618
1.928934
1.928931
0.2653517
0.2670821
0.2653643
0.2671106
1.171741
1.045644
1.171741
1.060578
1.191595
1.060574
1.191595
1.204252
1.208981
1.208981
1.950619
1.95071
1.928971
1.928993
0.2653515
0.2670821
0.2653643
0.2671105
1.171741
1.045615
1.171739
1.060527
1.191591
1.060413
1.191555
1.204252
1.208981
1.208981
1.950617
1.948302
1.929025
1.929261
0.2653508
0.2670819
0.2653636
0.2671104
1.171738
1.045451
1.171718
1.060162
1.191534
1.059593
1.190698
1.204252
1.208981
1.20898
1.950307
1.976216
1.930128
1.93299
0.2653495
0.2670815
0.2653625
0.26711
1.171687
1.044362
1.172259
1.058241
1.190955
1.054817
1.183963
1.204222
1.208981
1.208971
1.879144
1.888405
1.878276
1.889702
0.265348
0.2670809
0.2653608
0.2671093
1.387473
1.248046
1.350625
1.225685
1.376466
1.248421
1.348797
1.574734
1.448989
1.551041
1.450417
1.550351
1.449735
1.5504
1.776684
1.649421
1.752154
1.65124
1.781173
1.651565
1.753467
1.978549
1.850771
1.953644
1.834791
1.957469
1.855107
1.954228
0.2653467
0.2670804
0.2653593
0.2671088
0.2653459
0.2670798
0.2653583
0.2671083
0.2653457
0.2670793
0.2653578
0.267108
0.2653469
0.2670794
0.2653583
0.2671082
0.2675741
0.2675052
1.144852
1.048743
1.166869
1.047037
1.144457
1.049251
1.166968
1.751199
1.65094
1.751214
1.178507
1.062692
1.16356
1.057627
1.178813
1.065558
1.164859
1.204117
1.94973
1.932203
1.949199
1.929442
1.191603
1.057032
1.181342
1.065265
1.192784
1.05785
1.177723
1.172283
1.048394
1.146572
1.049829
1.166429
1.047699
1.144944
1.26816
1.268927
1.218698
1.20025
1.26974
1.267528
1.216529
1.781437
1.652447
1.75541
1.651645
1.78177
1.652999
1.75619
1.960021
1.85782
1.957487
1.835836
1.960911
1.859225
1.959065
0.2675753
0.2675748
1.144427
1.049448
1.166981
1.046981
1.14437
1.049617
1.167006
1.751271
1.650882
1.751231
1.178831
1.066681
1.165352
1.058508
1.17886
1.067233
1.165527
1.20412
1.949019
1.928945
1.94896
1.928883
1.192815
1.058079
1.177691
1.066417
1.192867
1.058267
1.17768
1.166326
1.047144
1.144368
1.049573
1.166255
1.046992
1.144089
1.266907
1.266792
1.215064
1.199925
1.26698
1.266771
1.214999
1.781875
1.653163
1.756624
1.6518
1.781997
1.653307
1.756763
1.889656
1.904846
1.836919
1.837523
1.889436
1.905164
1.83708
0.2675796
0.2675918
1.144382
1.049651
1.167008
1.046937
1.144355
1.049684
1.167012
1.751256
1.650867
1.751239
1.178861
1.067438
1.165598
1.058672
1.178867
1.067556
1.165633
1.20412
1.948954
1.928941
1.94895
1.928952
1.192872
1.058307
1.177678
1.066648
1.192883
1.058351
1.177679
1.929708
1.952753
1.929726
1.952767
1.166249
1.046828
1.144019
1.049532
1.166243
1.046787
1.143949
1.266854
1.26676
1.214935
1.199918
1.266865
1.266758
1.214929
1.782005
1.653327
1.756874
1.651825
1.78201
1.653367
1.756887
1.889866
1.905241
1.837193
1.837586
1.889847
1.905249
1.83722
0.2675761
0.2675962
1.144355
1.04968
1.167012
1.046891
1.144343
1.049678
1.167011
1.751249
1.650863
1.751245
1.178866
1.067593
1.165644
1.05869
1.178867
1.067609
1.165648
1.20412
1.948953
1.92897
1.948952
1.92897
1.192883
1.058354
1.177679
1.06669
1.192885
1.058361
1.177679
1.929747
1.952777
1.929749
1.952779
1.166242
1.04673
1.143936
1.049512
1.166241
1.046717
1.143918
1.266849
1.266758
1.214924
1.199918
1.266853
1.266757
1.214919
1.782011
1.653365
1.756914
1.651827
1.782011
1.653374
1.756914
1.889888
1.905254
1.83722
1.83759
1.889881
1.905256
1.837232
0.2675569
0.2675639
1.144339
1.049672
1.167011
1.046868
1.144343
1.049657
1.16701
1.751245
1.650857
1.75125
1.178867
1.067605
1.165647
1.058666
1.178865
1.067577
1.165641
1.20412
1.948953
1.928971
1.948954
1.928971
1.192885
1.058362
1.177679
1.066676
1.192884
1.058355
1.177679
1.929749
1.95278
1.929749
1.95278
1.166241
1.046717
1.143917
1.049514
1.166241
1.046726
1.143933
1.266849
1.266758
1.214923
1.199917
1.266851
1.266757
1.214917
1.782011
1.653374
1.756914
1.651826
1.782011
1.653365
1.756917
1.889891
1.905256
1.837225
1.83759
1.889885
1.905257
1.837233
0.2675988
0.267605
1.144337
1.049653
1.16701
1.046866
1.144362
1.04961
1.167005
1.751239
1.650849
1.751257
1.178865
1.067536
1.165629
1.058574
1.17886
1.067412
1.165594
1.20412
1.948953
1.928955
1.948959
1.928946
1.192883
1.058355
1.17768
1.066573
1.192873
1.058314
1.177677
1.929731
1.952774
1.929718
1.952772
1.166242
1.046778
1.143938
1.049521
1.166244
1.046801
1.143993
1.266852
1.266758
1.214928
1.199917
1.266851
1.266758
1.214919
1.782011
1.65337
1.756892
1.651821
1.78201
1.653333
1.75689
1.889885
1.905254
1.837223
1.837589
1.889879
1.905255
1.837227
0.2676012
0.2675982
1.144357
1.049587
1.167004
1.046899
1.144439
1.04945
1.166988
1.751232
1.650849
1.751269
1.178859
1.067218
1.165525
1.0582
1.178835
1.066701
1.16536
1.204119
1.948969
1.928896
1.949042
1.928977
1.192869
1.058278
1.177678
1.066141
1.192825
1.058098
1.177669
1.929661
1.952764
1.929723
1.952793
1.166245
1.04692
1.144016
1.049477
1.16625
1.046964
1.144164
1.266865
1.266759
1.214942
1.199918
1.266858
1.26676
1.21493
1.782008
1.653325
1.756803
1.651786
1.781994
1.653198
1.756714
1.889846
1.905247
1.837208
1.837583
1.889851
1.905244
1.837196
0.26758
0.2675588
1.14453
1.049355
1.166983
1.04743
1.14506
1.049103
1.167005
1.751199
1.650725
1.751144
1.178823
1.065685
1.164902
1.056574
1.178643
1.063144
1.163765
1.204115
1.949266
1.929537
1.949949
1.932507
1.192804
1.057871
1.177669
1.064223
1.192491
1.057113
1.17764
1.930243
1.952905
1.93311
1.953283
1.166259
1.047282
1.144356
1.049384
1.166387
1.0477
1.145106
1.26696
1.266769
1.215003
1.199925
1.266902
1.266782
1.215024
1.781978
1.653051
1.756328
1.651581
1.781699
1.652491
1.755552
1.889537
1.905206
1.837087
1.837524
1.889669
1.905153
1.836965
0.2673845
0.2675523
0.5528293
0.4491418
0.5495385
0.42576
0.5744115
0.4506709
0.5511735
0.7514982
0.6497232
0.7498776
0.6251783
0.6491274
0.7509545
0.9513031
0.8498945
0.9499588
0.8489352
0.9508883
1.15076
1.049953
1.149999
1.024121
1.048983
1.151077
1.351018
1.249977
1.350001
1.249035
1.350998
1.551137
1.44998
1.54997
1.449004
1.550977
2.049998
2.049008
0.3493249
0.2565626
0.3486921
0.3494572
0.3518558
0.3477662
0.2560656
0.348226
0.3529045
0.2326867
0.3543252
0.3476849
0.2555376
0.3469444
0.2306405
0.3528491
0.3509332
1.146371
1.049584
1.167122
1.04456
1.147608
1.044889
1.17116
1.178613
1.059183
1.191216
1.046959
1.17909
1.04738
1.176218
1.204146
1.950988
1.941216
1.978601
1.978082
0.3484653
0.2561723
0.3481776
0.3517585
0.3512801
1.191448
1.060684
1.191603
1.046278
1.172446
1.046074
1.171859
1.933739
1.931395
1.978
1.9779
0.3472439
0.2556139
0.3471288
0.3505563
0.3506895
1.191652
1.06291
1.192529
1.046811
1.172034
1.049322
1.183522
1.931012
1.931029
1.977893
1.977879
0.3477428
0.2562345
0.348803
0.3519638
0.2329032
0.3545142
1.165432
1.064751
1.165467
1.052496
1.18817
1.052616
1.188195
1.931051
1.931003
1.977856
1.977727
0.3495448
0.2575028
0.3495947
0.2332008
0.3556605
0.2308425
0.3549624
1.192561
1.06277
1.192119
1.049896
1.183604
1.048938
1.176961
1.930936
1.93082
1.977662
1.977247
0.3492433
0.2574465
0.3493646
0.3533415
0.2303061
0.3532299
1.20681
1.931218
1.933729
1.97726
1.977935
1.192308
1.056096
1.177633
1.052308
1.189575
1.047818
1.174971
1.166585
1.048841
1.146681
1.044849
1.170945
1.044605
1.147821
1.268765
1.267075
1.215858
1.20029
1.267685
1.267574
1.21694
1.550338
1.449324
1.550321
1.41247
1.587529
1.448782
1.551068
1.781383
1.651598
1.753544
1.612496
1.788489
1.649467
1.752148
1.885441
1.904622
1.835513
1.836104
1.887609
1.90269
1.833679
0.3215668
0.3748887
0.373718
0.3230391
0.2657819
0.2668465
0.2655824
0.2661701
0.2669721
0.2673422
0.5248369
0.5755852
0.574916
0.5246132
0.7249763
0.7756147
0.7749876
0.7245258
0.924995
0.9756273
0.9749989
0.9245404
1.124999
1.17563
1.175002
1.124544
1.325
1.375631
1.375002
1.324545
1.525
1.575631
1.575002
1.524545
1.725
1.77563
1.775002
1.724545
1.925
1.97563
1.975003
1.924545
0.2654199
0.2670465
0.2653956
0.2668581
0.2653598
0.2670822
0.2653654
0.2671098
0.2653488
0.2670798
0.2653595
0.2671094
0.2653467
0.2670799
0.2653587