/*--------------------------------*- C++ -*----------------------------------*\
  =========                 |
  \\      /  F ield         | OpenFOAM: The Open Source CFD Toolbox
   \\    /   O peration     | Website:  https://openfoam.org
    \\  /    A nd           | Version:  7
     \\/     M anipulation  |
\*---------------------------------------------------------------------------*/
FoamFile
{
    version     2.0;
    format      ascii;
    class       volScalarField;
    location    "0.1";
    object      Cy;
}
// * * * * * * * * * * * * * * * * * * * * * * * * * * * * * * * * * * * * * //

dimensions      [0 1 0 0 0 0 0];

internalField   nonuniform List<scalar> 
82743
(
0.4992715
0.4996393
0.4996101
0.4995582
0.4995705
0.4995872
0.4995665
0.4995209
0.4994783
0.6997491
0.6996591
0.699664
0.6997183
0.6998667
0.6999618
0.6998858
0.6997059
0.6995459
0.8997725
0.8996045
0.8996455
0.8999602
0.9005017
0.9008302
0.9005903
0.9000495
0.8996194
1.099921
1.099675
1.099608
1.1003
1.101765
1.102705
1.101978
1.100525
1.099603
1.299976
1.299474
1.297776
1.299798
1.304285
1.308206
1.305732
1.300043
1.298721
1.49999
1.499481
1.497633
1.445216
1.449689
1.464469
1.459908
1.446108
1.443526
1.700005
1.699811
1.699795
1.648679
1.611343
1.651082
1.900011
1.900007
1.900006
1.848985
1.812203
1.900617
2.100007
2.100011
2.100003
2.049004
2.012204
2.099977
2.3
2.3
2.3
2.249004
2.212204
2.299846
2.499993
2.49999
2.499998
2.449002
2.412204
2.499583
2.699992
2.700004
2.700032
2.649017
2.612204
2.647182
2.900004
2.900234
2.900418
2.849211
2.812206
2.849878
3.100021
3.100582
3.102645
3.051414
3.012624
3.010254
3.009825
3.010715
3.052221
3.300021
3.300577
3.302527
3.301526
3.301324
3.30031
3.300939
3.302469
3.301827
3.500007
3.500239
3.500493
3.500448
3.500288
3.500207
3.500358
3.500585
3.500633
3.699994
3.699993
3.699968
3.699896
3.699793
3.699737
3.699783
3.699891
3.699975
3.899994
3.899979
3.899956
3.899923
3.899885
3.899863
3.899878
3.899918
3.899955
0.2590668
0.2584725
0.2581565
0.2580917
0.2580836
0.2580829
0.258083
0.2580841
0.2580894
0.4507457
0.5000706
0.4995933
0.4990362
0.4988271
0.4988051
0.498821
0.4987977
0.4987325
0.4986559
0.650419
0.69958
0.6990676
0.6986838
0.6986281
0.6987898
0.6989251
0.6988528
0.6985948
0.6983084
0.8500175
0.8997615
0.8995473
0.8995224
0.8998736
0.9005689
0.9010663
0.9009018
0.9001765
0.8994294
1.049989
1.099924
1.099916
1.100149
1.101056
1.103006
1.104471
1.104151
1.10222
1.100383
1.249994
1.300003
1.300035
1.300107
1.300957
1.30664
1.309264
1.310591
1.303965
1.300193
1.449995
1.500034
1.500044
1.4999
1.449314
1.456408
1.463578
1.469304
1.456375
1.449201
1.649995
1.700057
1.700126
1.700277
1.649567
1.608978
1.700728
1.849995
1.900042
1.90007
1.900065
1.849804
1.899801
2.049994
2.100022
2.100037
2.100023
2.049911
2.099121
2.249993
2.299998
2.299997
2.299998
2.249914
2.299998
2.449993
2.499975
2.499956
2.499965
2.449883
2.50088
2.649993
2.699959
2.699935
2.699949
2.649939
2.700331
2.849993
2.899954
2.899932
2.899942
2.850443
2.900013
3.049994
3.099976
3.100026
3.100389
3.051793
3.016775
3.046862
3.047144
3.027245
3.102791
3.249994
3.299982
3.300009
3.300194
3.300338
3.298008
3.295842
3.297293
3.30102
3.301386
3.449995
3.499978
3.499954
3.499902
3.499663
3.498928
3.498388
3.49883
3.499829
3.50028
3.649995
3.69998
3.699945
3.699873
3.699721
3.699466
3.699312
3.699461
3.69979
3.7
3.849995
3.899985
3.899959
3.899911
3.899835
3.899741
3.899694
3.899748
3.899865
3.899957
0.2586868
0.3080952
0.3066352
0.306121
0.3060182
0.3060022
0.3059945
0.3059808
0.305962
0.4517853
0.500152
0.4985937
0.4969895
0.4963725
0.4962307
0.496221
0.4961899
0.4961012
0.4959843
0.7013628
0.6997378
0.698849
0.6979938
0.6976835
0.6977835
0.6979359
0.697875
0.6975542
0.6971474
0.9003916
0.89975
0.899389
0.8991702
0.8994689
0.9002703
0.9009241
0.9008558
0.8999733
0.8989
1.099988
1.099879
1.099809
1.099973
1.100924
1.103051
1.104814
1.104855
1.10275
1.100358
1.299989
1.299963
1.29993
1.299838
1.300743
1.306419
1.308478
1.311294
1.30468
1.300111
1.500013
1.500013
1.499963
1.499667
1.449016
1.456229
1.459121
1.468747
1.457069
1.449066
1.700027
1.700065
1.700146
1.700179
1.649374
1.608979
1.700199
1.900024
1.900062
1.900118
1.900051
1.849815
1.898565
2.100014
2.100039
2.100088
2.100078
2.101507
2.102013
2.097506
2.299999
2.299996
2.299992
2.299993
2.300003
2.299999
2.300014
2.499984
2.499953
2.49989
2.499884
2.498467
2.498
2.502559
2.699974
2.699929
2.699854
2.699881
2.649846
2.701736
2.899971
2.89993
2.899855
2.899803
2.850147
2.901097
3.09998
3.099974
3.100042
3.100368
3.051123
3.015224
3.046418
3.046731
3.02763
3.055187
3.299989
3.299989
3.300045
3.300333
3.300309
3.297449
3.294962
3.296876
3.301708
3.302639
3.499992
3.499979
3.499957
3.499888
3.499534
3.498481
3.497744
3.498484
3.500039
3.500709
3.699994
3.699974
3.699929
3.699818
3.699567
3.699148
3.698915
3.699201
3.699783
3.700137
3.899996
3.899977
3.899938
3.899858
3.899726
3.899563
3.89949
3.899601
3.899821
3.899987
0.2583976
0.3066851
0.3041848
0.3034103
0.3032371
0.3032047
0.3031921
0.3031745
0.3031506
0.4522754
0.4997195
0.4970072
0.494407
0.4933679
0.4930873
0.493039
0.4929974
0.4928945
0.4927537
0.7023708
0.6995808
0.6981652
0.6967819
0.6961694
0.696161
0.6962962
0.6962379
0.695884
0.6954062
0.9007257
0.8996649
0.8990897
0.8986394
0.8988272
0.899658
0.9004
0.9003841
0.8994066
0.8981304
1.099994
1.099825
1.099673
1.099751
1.100757
1.103028
1.10496
1.105141
1.102914
1.100168
1.299976
1.299935
1.299861
1.299772
1.300805
1.306527
1.30859
1.311636
1.305012
1.300166
1.50001
1.500007
1.499947
1.499595
1.448977
1.456202
1.458799
1.468708
1.457162
1.449058
1.700029
1.700074
1.700164
1.700115
1.649352
1.608983
1.699802
1.900029
1.900078
1.900158
1.900062
1.849861
1.897657
2.100018
2.100053
2.100136
2.100186
2.102554
2.098112
2.096161
2.299999
2.299995
2.299987
2.299989
2.300003
2.3
2.300025
2.499981
2.499934
2.499828
2.499763
2.497416
2.501901
2.503935
2.699968
2.699904
2.699786
2.699834
2.649771
2.702704
2.899965
2.899905
2.899788
2.899779
2.850107
2.901647
3.099976
3.099953
3.099986
3.100302
3.051002
3.015213
3.046372
3.046699
3.027802
3.05567
3.299986
3.299978
3.300028
3.300258
3.300052
3.297075
3.294541
3.296616
3.301778
3.302994
3.499991
3.499972
3.499941
3.499878
3.499426
3.49819
3.497372
3.498289
3.500182
3.501071
3.699993
3.699968
3.69991
3.699769
3.699452
3.698925
3.698648
3.699043
3.699813
3.700272
3.899995
3.899972
3.89992
3.899814
3.89963
3.899406
3.899313
3.899478
3.899791
3.900025
0.2583372
0.3061738
0.3034135
0.3024827
0.3022721
0.302231
0.3022163
0.3021973
0.3021715
0.452299
0.4995062
0.4963628
0.4933446
0.4920961
0.4917375
0.4916657
0.4916183
0.4915097
0.4913584
0.7025465
0.6994347
0.6977165
0.6960132
0.6952048
0.6951172
0.6952309
0.6951704
0.6948029
0.6942913
0.9008652
0.8995832
0.8988554
0.8982421
0.8983427
0.8991635
0.8999272
0.8999275
0.8989119
0.897535
1.099994
1.099783
1.099577
1.099619
1.100643
1.102951
1.104935
1.105153
1.102888
1.100018
1.29997
1.299917
1.299835
1.299741
1.300808
1.306553
1.308635
1.311718
1.305082
1.300157
1.500009
1.500002
1.499937
1.499571
1.448971
1.456205
1.458786
1.468718
1.457183
1.44905
1.700032
1.700077
1.700166
1.700095
1.649354
1.608984
1.699663
1.900033
1.900085
1.900173
1.900066
1.849888
1.897353
2.100022
2.10006
2.100155
2.100223
2.10277
2.09843
2.095782
2.300001
2.299994
2.299984
2.299987
2.300003
2.300001
2.300029
2.49998
2.499924
2.4998
2.49972
2.497201
2.501584
2.504326
2.699966
2.699891
2.699757
2.699818
2.649741
2.703027
2.899962
2.899891
2.89976
2.89977
2.850096
2.90183
3.099972
3.09994
3.099954
3.10027
3.050977
3.015212
3.046362
3.046692
3.027806
3.05579
3.299983
3.299966
3.299987
3.30019
3.299942
3.296943
3.294406
3.296525
3.301771
3.303077
3.499989
3.499963
3.499913
3.499811
3.499298
3.498009
3.497176
3.49816
3.50017
3.501166
3.699992
3.699963
3.699893
3.699736
3.699395
3.698817
3.698523
3.698977
3.699851
3.700394
3.899994
3.899968
3.899908
3.89979
3.899592
3.899347
3.899247
3.899444
3.899812
3.900077
0.2583272
0.306089
0.303274
0.3023138
0.3020926
0.3020501
0.3020361
0.3020164
0.3019891
0.4523013
0.4994584
0.4962196
0.4931023
0.4917982
0.491416
0.4913383
0.4912917
0.4911837
0.4910314
0.7025508
0.6993901
0.6975936
0.6958037
0.6949355
0.6948165
0.694919
0.6948605
0.6944986
0.6939917
0.9008737
0.8995547
0.8987795
0.8981081
0.8981614
0.8989534
0.8997057
0.8997109
0.8987069
0.8973388
1.099994
1.099766
1.099534
1.099542
1.100539
1.102828
1.104804
1.10503
1.102777
1.099914
1.299966
1.299906
1.299812
1.299704
1.300763
1.306504
1.308583
1.311671
1.305041
1.300116
1.500007
1.499996
1.499926
1.499556
1.448968
1.456207
1.458786
1.468722
1.457186
1.449046
1.700032
1.700075
1.700162
1.70009
1.649355
1.608984
1.69966
1.900034
1.900086
1.900171
1.900064
1.849895
1.897352
2.100016
2.100061
2.100154
2.100221
2.102769
2.098431
2.095781
2.299973
2.299995
2.299981
2.299984
2.300002
2.300001
2.300029
2.499928
2.499921
2.499794
2.499716
2.4972
2.501583
2.504327
2.699914
2.699886
2.699749
2.699814
2.649738
2.703029
2.899933
2.899888
2.899753
2.899765
2.850096
2.901833
3.099965
3.099938
3.099948
3.100264
3.050973
3.015212
3.04636
3.04669
3.027806
3.055809
3.299983
3.299964
3.299983
3.300184
3.299938
3.296942
3.294407
3.296529
3.301777
3.303084
3.499988
3.499962
3.49991
3.499807
3.499295
3.498008
3.497178
3.498165
3.500177
3.501173
3.699991
3.699962
3.699891
3.699734
3.699392
3.698816
3.698524
3.698979
3.699855
3.700398
3.899993
3.899968
3.899907
3.899789
3.89959
3.899345
3.899246
3.899445
3.899813
3.900079
0.2583368
0.306192
0.3034305
0.3025
0.302292
0.3022593
0.302253
0.3022304
0.3021957
0.45229
0.4995339
0.4964084
0.4934008
0.4921564
0.4917981
0.4917368
0.4917049
0.4915996
0.491447
0.7025517
0.6994549
0.6977664
0.6960945
0.6952913
0.6951832
0.6952853
0.6952377
0.6949044
0.6944412
0.9008729
0.8995926
0.8988711
0.8982426
0.898283
0.8990151
0.8997174
0.8997249
0.8987962
0.8975577
1.099997
1.09978
1.099551
1.099525
1.100434
1.102627
1.104524
1.10474
1.102573
1.099869
1.29996
1.299903
1.299794
1.299657
1.300658
1.306353
1.308402
1.311472
1.304879
1.300046
1.500004
1.49999
1.499914
1.499549
1.448967
1.456204
1.458784
1.468717
1.457179
1.449053
1.700034
1.700068
1.700149
1.700098
1.649354
1.608984
1.699794
1.900033
1.900079
1.900153
1.900055
1.849882
1.897654
2.1
2.100058
2.100132
2.10018
2.102549
2.098117
2.096159
2.299743
2.299993
2.299976
2.299981
2.3
2.3
2.300026
2.499392
2.499909
2.499803
2.499749
2.497416
2.501898
2.503941
2.699386
2.699879
2.699759
2.699817
2.649758
2.702713
2.899714
2.899889
2.899761
2.899756
2.850104
2.901666
3.099953
3.099943
3.099962
3.100273
3.050979
3.015212
3.046362
3.046692
3.027806
3.055766
3.299985
3.299971
3.300011
3.300233
3.300028
3.297069
3.294548
3.296634
3.301806
3.303025
3.499991
3.499968
3.499932
3.499863
3.499412
3.498187
3.497382
3.498308
3.500206
3.501097
3.699992
3.699965
3.699904
3.699761
3.699445
3.698923
3.698653
3.699053
3.699826
3.700286
3.899994
3.899971
3.899918
3.899811
3.899627
3.899405
3.899316
3.899483
3.899798
3.900033
0.2583573
0.306727
0.3042141
0.303437
0.303268
0.3032605
0.3032754
0.303243
0.3031862
0.4522974
0.4997776
0.4970939
0.4945125
0.4934839
0.4931991
0.4931885
0.4932027
0.4930898
0.4929136
0.7023601
0.6996109
0.6982195
0.6968759
0.6962601
0.6961885
0.6962874
0.6962613
0.6959848
0.6956024
0.9007497
0.8996811
0.8991032
0.8986182
0.8986724
0.8992728
0.8998404
0.89984
0.899088
0.8981147
1.10001
1.099826
1.099642
1.099633
1.100371
1.102269
1.103924
1.104085
1.102185
1.099931
1.299943
1.299914
1.299828
1.299637
1.300433
1.305975
1.307951
1.310883
1.304415
1.299923
1.500003
1.499984
1.49991
1.499579
1.44897
1.456194
1.45882
1.468702
1.457139
1.449068
1.700056
1.700052
1.700121
1.700147
1.649363
1.608983
1.700183
1.900024
1.900064
1.900109
1.900038
1.849853
1.898555
2.099988
2.100052
2.100085
2.100073
2.101503
2.102025
2.097503
2.299633
2.299987
2.299971
2.299977
2.299994
2.299999
2.300018
2.497763
2.499847
2.499838
2.499852
2.498456
2.497989
2.502575
2.69763
2.699849
2.6998
2.699839
2.649817
2.701763
2.899651
2.899889
2.899792
2.89972
2.850116
2.901141
3.099952
3.099951
3.099986
3.100265
3.050991
3.015212
3.04638
3.046708
3.027804
3.055578
3.299982
3.299979
3.300012
3.30027
3.300228
3.297425
3.294992
3.296935
3.301807
3.302718
3.5
3.499975
3.49994
3.49986
3.499505
3.498476
3.497772
3.498531
3.500094
3.500768
3.699988
3.699968
3.699921
3.699807
3.699557
3.699149
3.698931
3.699224
3.699809
3.700162
3.9
3.899973
3.899935
3.899856
3.899724
3.899565
3.899499
3.899613
3.899835
3.9
0.2585533
0.3080644
0.3065306
0.3059803
0.3058958
0.3059327
0.3059154
0.3059244
0.3058247
0.452045
0.5000074
0.4981885
0.4965075
0.4958898
0.4956596
0.4957221
0.4958984
0.4956933
0.4954351
0.7012613
0.6996691
0.6987136
0.6978785
0.6975186
0.6974542
0.6975172
0.6975194
0.6973317
0.6970705
0.9004856
0.8997471
0.8993759
0.8991056
0.8991556
0.8995178
0.899854
0.8998374
0.8993764
0.8988129
1.100069
1.099881
1.099772
1.09979
1.100301
1.101661
1.102807
1.102836
1.10147
1.099966
1.299835
1.299965
1.299933
1.299828
1.300324
1.305322
1.307429
1.309433
1.303467
1.29996
1.499983
1.5
1.499988
1.499765
1.449012
1.456129
1.459694
1.468718
1.456879
1.449109
1.700135
1.700013
1.700092
1.700228
1.649449
1.60898
1.700678
1.899993
1.900045
1.90006
1.900045
1.849841
1.899791
2.099998
2.100048
2.100042
2.100049
2.049975
2.099134
2.300025
2.299981
2.29997
2.299978
2.249983
2.300008
2.499566
2.49986
2.499911
2.499919
2.449903
2.500908
2.646579
2.69988
2.699891
2.699892
2.649911
2.700407
2.84847
2.899883
2.899836
2.899638
2.850104
2.900175
3.048984
3.09995
3.099944
3.100109
3.050958
3.015214
3.046524
3.046834
3.027793
3.054824
3.248974
3.299983
3.299971
3.300099
3.300162
3.29794
3.295973
3.297451
3.301269
3.301666
3.449007
3.499966
3.499932
3.499873
3.499637
3.498936
3.498459
3.498917
3.499908
3.500341
3.648981
3.699975
3.699942
3.699866
3.699718
3.699477
3.699343
3.699498
3.699821
3.700022
3.849006
3.899962
3.899956
3.899911
3.899837
3.899748
3.899708
3.899764
3.89988
3.899969
0.2586078
0.2573467
0.2556667
0.2555874
0.2554309
0.2554511
0.2561352
0.2558678
0.2553965
0.4510924
0.5009111
0.5004472
0.4997733
0.4996893
0.4991826
0.4991659
0.499513
0.4991899
0.498942
0.6516402
0.7001072
0.6998924
0.6996491
0.6994959
0.6993892
0.6993698
0.699369
0.6992877
0.6991743
0.8491972
0.8997579
0.8996096
0.8994994
0.8995199
0.8996318
0.8997261
0.8997058
0.8995418
0.8993444
1.049316
1.099841
1.099589
1.099319
1.099455
1.099857
1.100144
1.100094
1.099686
1.099289
1.248667
1.30009
1.299423
1.297487
1.298741
1.300592
1.302061
1.302388
1.299167
1.298488
1.448959
1.500009
1.499457
1.497527
1.44946
1.454885
1.463123
1.466568
1.454827
1.449534
1.649024
1.699957
1.699791
1.699736
1.649907
1.608992
1.649364
1.849193
1.900018
1.899996
1.899966
1.849915
1.850148
2.048863
2.099986
2.100009
2.100111
2.049975
2.049755
2.249273
2.299841
2.299955
2.299985
2.250034
2.249952
2.44858
2.500014
2.49998
2.49995
2.449881
2.45018
2.64712
2.700075
2.700031
2.70009
2.65007
2.650218
2.823054
2.900045
2.900186
2.900058
2.849958
2.849926
3.024825
3.100021
3.100533
3.102427
3.050469
3.015207
3.048132
3.048295
3.027635
3.052106
3.224178
3.300027
3.300549
3.302484
3.30147
3.301375
3.300723
3.301227
3.302653
3.301908
3.424609
3.499906
3.500214
3.500483
3.500452
3.500338
3.500324
3.500467
3.500647
3.500662
3.624401
3.700082
3.700011
3.699971
3.699902
3.699815
3.699777
3.699821
3.699914
3.699986
3.824575
3.899948
3.899988
3.89996
3.899928
3.899894
3.899877
3.899892
3.899928
3.899961
0.348162
0.2333161
0.3775351
0.3475063
0.346586
0.3489477
0.2340758
0.2335939
0.3483331
0.3481759
0.3492133
0.3493191
0.2335826
0.2335559
0.3480381
0.3479237
0.3493048
0.3492966
0.2335523
0.2335454
0.3478707
0.3478309
0.3492918
0.3492895
0.233545
0.2335442
0.3478173
0.3478091
0.34929
0.3492923
0.2335442
0.2335441
0.3478083
0.3478095
0.3492932
0.3492932
0.2335442
0.2335442
0.3478108
0.3478107
0.3492926
0.3492898
0.2335442
0.2335443
0.3478104
0.3478079
0.3492889
0.3492882
0.2335445
0.233547
0.3478086
0.347811
0.3492905
0.2335486
0.347819
0.4503418
0.5510055
0.4260052
0.4488266
0.5755724
0.5494723
0.6489453
0.7508816
0.6245024
0.6497601
0.7755481
0.7498495
0.8489675
0.9509498
0.8244694
0.8499492
0.975535
0.9499401
1.049009
1.150976
1.024463
1.050005
1.175536
1.14997
1.249023
1.350982
1.224464
1.250023
1.375536
1.349981
1.449025
1.550982
1.424464
1.450024
1.575536
1.549984
1.459139
1.58522
1.456562
1.466161
1.582631
1.452408
1.469116
1.465096
1.444085
1.574582
1.454932
1.449727
1.571846
1.649023
1.75098
1.624464
1.650019
1.775536
1.749988
1.787795
1.608993
1.849022
1.95098
1.824464
1.850015
1.975536
1.949989
1.987796
2.049021
2.150979
2.024464
2.050012
2.175536
2.14999
2.187796
2.249021
2.350979
2.224464
2.250011
2.375536
2.349989
2.387796
2.449021
2.550979
2.424464
2.45001
2.575536
2.549988
2.587796
2.64902
2.750979
2.624464
2.650011
2.775536
2.749986
2.787797
2.84902
2.950977
2.824464
2.850014
2.975536
2.949982
2.988559
2.824322
2.975911
2.846573
2.952883
3.049019
3.150976
3.024464
3.050017
3.175536
3.149977
3.249019
3.350975
3.224464
3.25002
3.375536
3.349973
3.44902
3.550976
3.424464
3.450022
3.575536
3.549972
3.649021
3.750977
3.624464
3.650024
3.775536
3.749972
3.849022
3.950978
3.824464
3.850026
3.949973
0.2341561
0.3771283
0.3492939
0.2337359
0.3789554
0.3496236
1.464658
1.582625
1.45639
1.463879
1.582616
1.449642
1.571469
1.456983
1.449905
1.571071
1.60898
2.991025
2.9902
2.844466
2.954509
2.843754
2.955146
3.021264
3.149063
3.145634
3.015228
3.021132
3.148478
3.144994
0.2337286
0.378966
0.3496485
0.2337046
0.379021
0.349621
1.463472
1.582616
1.456252
1.463434
1.582616
1.449901
1.571051
1.457174
1.449993
1.570977
1.608983
2.9902
2.990194
2.844061
2.955687
2.844498
2.955954
3.021128
3.148346
3.144853
3.015213
3.021118
3.148189
3.144696
3.032531
3.152811
3.155398
3.027797
3.033002
3.152895
3.155606
0.2337032
0.3790287
0.3495968
0.2336974
0.3790295
0.3495819
1.463369
1.582616
1.456222
1.463386
1.582617
1.449965
1.570973
1.457192
1.449995
1.570945
1.608984
2.990195
2.990194
3.021119
3.148187
3.144692
3.015212
3.021117
3.148135
3.144641
3.03305
3.152988
3.155767
3.027805
3.03313
3.152979
3.155783
0.2336983
0.3790232
0.3495593
0.2336911
0.3790329
0.3495443
1.46337
1.582617
1.456209
1.463374
1.582617
1.449978
1.570945
1.457188
1.449983
1.570938
1.608984
2.990194
2.990194
3.021117
3.148142
3.144647
3.015212
3.021116
3.148129
3.144635
3.033136
3.153003
3.155823
3.027806
3.03315
3.152997
3.155823
0.233692
0.3790372
0.3495467
0.2336969
0.3790292
0.349563
1.463372
1.582617
1.456195
1.46336
1.582617
1.44998
1.570937
1.457174
1.449967
1.570942
1.608984
2.990194
2.990194
3.021116
3.148128
3.144634
3.015212
3.021117
3.148142
3.144648
3.03315
3.152998
3.155824
3.027807
3.033141
3.153008
3.155831
0.2336995
0.3790191
0.3495651
0.2337004
0.3790015
0.3495563
1.463369
1.582617
1.456168
1.463335
1.582616
1.449978
1.570942
1.457139
1.449937
1.570967
1.608983
2.990194
2.990195
3.021116
3.148131
3.144639
3.015212
3.021119
3.148179
3.144691
3.033137
3.152988
3.155798
3.027806
3.033085
3.153015
3.155805
0.2336991
0.3790117
0.34958
0.2336998
0.3790375
0.3495989
1.46337
1.582616
1.456111
1.463326
1.582615
1.449956
1.57097
1.457007
1.449846
1.571042
1.608979
2.990194
2.990197
3.021118
3.148166
3.14469
3.015214
3.021128
3.148291
3.144847
3.033064
3.15296
3.155699
3.027801
3.032856
3.152988
3.15563
0.2337031
0.3790295
0.3496139
0.2337571
0.3788635
0.3495714
1.463518
1.582615
1.455758
1.463596
1.582621
1.449829
1.571064
1.456208
1.449535
1.571493
1.608981
2.990194
2.9902
3.021131
3.148331
3.144982
3.015211
3.021288
3.148697
3.145632
3.032732
3.152815
3.155228
3.02774
3.031457
3.152637
3.154563
0.2337494
0.3786127
0.3491062
0.230823
0.3513305
0.2561666
0.3479731
0.348319
0.3511909
0.3517028
0.2555221
0.3472752
0.3466302
0.3506501
0.3501875
0.6498308
0.7516565
0.749935
0.6491458
0.7509699
0.8499275
0.9512245
0.9499779
0.8489683
0.9509192
1.449985
1.551026
1.550014
1.449022
1.550998
1.462503
1.582624
1.446345
1.450264
1.584867
1.464097
1.449993
1.450927
1.464751
1.452076
1.450959
1.449591
1.571909
1.445913
1.443869
1.574419
1.649967
1.751282
1.749948
1.648999
1.750978
1.609973
1.787932
1.812246
1.987793
2.012202
2.183759
2.41624
2.587345
2.850041
2.975841
2.949858
2.849196
2.950919
2.99019
2.988663
2.846718
2.953331
2.824544
2.975998
3.04984
3.175184
3.150151
3.048824
3.151128
3.021477
3.14883
3.146542
3.012745
3.010666
3.155504
3.154535
3.030361
3.151553
3.152656
3.011395
3.025599
3.156531
3.15662
3.250112
3.37556
3.34998
3.249096
3.350969
3.449966
3.575598
3.549895
3.44892
3.574342
3.550786
3.650101
3.775405
3.750019
3.625659
3.649212
3.751074
3.849937
3.975731
3.949779
3.84895
3.950857
0.2663222
0.2684235
0.265439
0.2666616
0.2655432
0.2667061
0.2653623
0.2670686
0.2653902
0.2671068
0.2653495
0.2670834
0.265365
0.2671094
0.2653469
0.2670803
0.2653598
0.2671085
0.2653469
0.2670803
0.2653592
0.2671088
0.2653472
0.267081
0.2653596
0.2671091
0.2653471
0.267081
0.2653596
0.267109
0.265348
0.2670804
0.2653597
0.2671089
0.2653584
0.2670822
0.2653673
0.2671118
0.4747269
0.4242598
0.4244054
0.4755422
0.6749672
0.6243309
0.6249365
0.6754295
0.8749931
0.8243574
0.8249858
0.8754492
1.074999
1.024368
1.024995
1.075455
1.275
1.22437
1.224998
1.275456
1.475
1.42437
1.424998
1.475456
1.445373
1.548979
1.572813
1.449929
1.450105
1.549425
1.571199
1.464601
1.469116
1.469585
1.675
1.62437
1.624997
1.675455
1.624229
1.750947
1.774991
1.649943
1.627576
1.749971
1.775812
1.687748
1.609894
1.688183
1.624462
1.752586
1.647848
1.753724
1.875
1.824369
1.824997
1.875455
1.824986
1.950992
1.975008
1.849939
1.82454
1.949983
1.975555
1.887796
1.81228
1.887708
1.851583
1.95141
1.852595
1.949932
2.075
2.024369
2.024997
2.075455
2.024993
2.150999
2.175008
2.049995
2.024555
2.150014
2.175541
2.087796
2.0123
2.087709
2.048925
2.151024
2.049583
2.149828
2.275
2.224369
2.224997
2.275455
2.224993
2.350996
2.375007
2.249998
2.224512
2.350003
2.375488
2.287796
2.212297
2.287705
2.248931
2.351029
2.249876
2.350125
2.475
2.424369
2.424997
2.475455
2.424992
2.550998
2.575007
2.449988
2.42446
2.550008
2.575439
2.487796
2.412292
2.487701
2.44855
2.548397
2.45018
2.550467
2.675
2.624369
2.624997
2.675455
2.624993
2.751056
2.775022
2.650036
2.624426
2.75018
2.774151
2.687796
2.61229
2.6877
2.647224
2.77505
2.650077
2.747383
2.875
2.82437
2.824997
2.875455
2.825032
2.951691
2.976654
2.850533
2.824003
2.95122
2.977671
2.887832
2.812341
2.888144
2.875839
2.811736
2.825024
2.887859
3.075
3.024369
3.024997
3.075455
3.010473
3.155486
3.154218
3.027698
3.021434
3.149201
3.146434
3.022773
3.153163
3.152733
3.047761
3.047258
3.144863
3.144277
3.024329
3.153566
3.154564
3.048007
3.023825
3.145298
3.147402
3.025336
3.156132
3.156252
3.027119
3.054344
3.151176
3.151978
3.275
3.224369
3.224997
3.275455
3.475
3.424369
3.424997
3.475455
3.675
3.62437
3.624998
3.675455
3.875
3.82437
3.824998
3.875455
0.2675308
0.2674683
1.449524
1.548951
1.571053
1.44922
1.449516
1.548645
1.570947
1.467888
1.469015
1.468583
1.627578
1.750008
1.750761
1.649485
1.627742
1.74993
1.7513
1.608978
1.647088
1.756189
1.646733
1.757054
2.824253
2.951175
2.975888
2.850291
2.822092
2.950546
2.972335
3.028782
3.151392
3.151738
3.051389
3.028275
3.151152
3.151174
3.072676
3.024116
3.076819
3.015359
3.072824
3.024314
3.076283
3.023789
3.144
3.147227
3.046805
3.023768
3.143241
3.146924
3.056326
3.152286
3.15374
3.027266
3.057221
3.152512
3.1546
0.2675687
0.2675647
1.449388
1.548577
1.570935
1.449051
1.449419
1.548516
1.570929
1.46862
1.468757
1.468716
1.627736
1.749952
1.751402
1.64938
1.627736
1.749918
1.751419
1.608982
1.646576
1.756838
1.646476
1.75646
2.822062
2.950392
2.972303
2.850141
2.821995
2.950294
2.972274
3.028207
3.151084
3.150994
3.051053
3.028147
3.150894
3.150814
3.072494
3.024295
3.075917
3.015216
3.072526
3.024288
3.075875
3.023769
3.143092
3.146962
3.046702
3.023804
3.142952
3.146903
3.082925
3.023946
3.077991
3.027753
3.082718
3.024221
3.0781
0.2675969
0.2675943
1.449374
1.548511
1.570926
1.448999
1.449393
1.548496
1.570927
1.46869
1.468732
1.468722
1.627735
1.749933
1.751442
1.649361
1.627738
1.749927
1.751454
1.608984
1.646418
1.756246
1.646385
1.756125
2.821982
2.950287
2.972273
2.850108
2.82196
2.950262
2.972268
2.844734
2.956067
2.844864
2.956119
3.028143
3.150893
3.150802
3.05099
3.028135
3.150823
3.150744
3.072472
3.024283
3.075856
3.015213
3.072481
3.024282
3.075846
3.023807
3.142962
3.14695
3.046692
3.023808
3.142919
3.14692
3.083102
3.024296
3.078201
3.027803
3.083093
3.024308
3.078201
0.2675526
0.2675642
1.449377
1.548496
1.570926
1.448973
1.44938
1.548492
1.570926
1.46871
1.468724
1.468716
1.627738
1.749935
1.751458
1.649356
1.627738
1.749935
1.75146
1.608984
1.646372
1.756092
1.646366
1.756075
2.821958
2.950262
2.972268
2.850096
2.821955
2.950256
2.972267
2.8449
2.956139
2.844917
2.956147
3.028135
3.15083
3.150747
3.050974
3.028133
3.150812
3.150733
3.072469
3.024281
3.075844
3.015212
3.072472
3.024281
3.075842
3.023809
3.142929
3.146938
3.04669
3.023809
3.142919
3.146929
3.083121
3.024313
3.078212
3.027806
3.083119
3.024316
3.078211
0.2675974
0.2675761
1.449376
1.548489
1.570926
1.448951
1.449363
1.548489
1.570925
1.468715
1.468709
1.468702
1.627738
1.749934
1.75146
1.649349
1.627737
1.749935
1.751458
1.608984
1.646366
1.756075
1.646371
1.756092
2.821955
2.950255
2.972267
2.850094
2.821957
2.950259
2.972267
2.844917
2.956147
2.844901
2.956141
3.028133
3.150809
3.150731
3.050972
3.028134
3.150824
3.150745
3.07247
3.024281
3.07584
3.015212
3.072469
3.024281
3.075843
3.023809
3.142918
3.146929
3.046692
3.023809
3.142932
3.146941
3.083123
3.024316
3.078211
3.027806
3.083121
3.024316
3.078212
0.267535
0.2675703
1.449371
1.548483
1.570925
1.448922
1.449334
1.54849
1.570923
1.46871
1.468678
1.468666
1.627737
1.749925
1.751454
1.64934
1.627734
1.749932
1.751442
1.608983
1.646384
1.756125
1.646416
1.756246
2.821959
2.950254
2.972267
2.850096
2.821982
2.95027
2.972271
2.844866
2.956124
2.844741
2.956083
3.028133
3.150806
3.150734
3.050977
3.028138
3.150858
3.150782
3.072473
3.024281
3.075839
3.015212
3.072469
3.024282
3.075847
3.023809
3.142922
3.146925
3.046701
3.023809
3.142972
3.146966
3.08312
3.024314
3.078209
3.027806
3.083116
3.024312
3.078212
0.267571
0.2675463
1.449355
1.548482
1.570924
1.448886
1.449272
1.548523
1.570924
1.468676
1.468623
1.468539
1.627734
1.749914
1.751419
1.649349
1.627733
1.749947
1.751402
1.608981
1.646474
1.756462
1.646574
1.756838
2.821994
2.950252
2.97227
2.850081
2.822057
2.950278
2.972276
2.84452
2.956005
2.844124
2.95586
3.028137
3.150812
3.150762
3.050965
3.028143
3.15091
3.150866
3.072485
3.024282
3.075841
3.015213
3.072473
3.024284
3.075858
3.023808
3.142973
3.146938
3.046746
3.02381
3.143139
3.147042
3.083094
3.024303
3.0782
3.027804
3.083094
3.024291
3.078205
0.2675879
0.2676134
1.449298
1.548554
1.570931
1.448981
1.449084
1.548806
1.571001
1.468416
1.468497
1.467551
1.627738
1.749925
1.751302
1.649516
1.627568
1.749998
1.750763
1.608976
1.646734
1.757066
1.647095
1.75622
2.822079
2.950199
2.972273
2.84998
2.822464
2.950169
2.972252
2.843852
2.955587
2.844574
2.95492
3.028139
3.150788
3.150837
3.050762
3.028103
3.150812
3.150995
3.072541
3.02429
3.075852
3.015214
3.072499
3.024298
3.075891
3.023808
3.143332
3.147053
3.047224
3.023832
3.144204
3.147415
3.082931
3.024253
3.078158
3.027789
3.082987
3.024186
3.07815
0.2673866
0.2674959
0.2572608
0.3506831
0.3501838
0.2330543
0.232925
0.3525302
0.3549608
0.2560065
0.3488966
0.3475749
0.2307442
0.353143
0.3511681
0.2555652
0.3470539
0.347099
0.3506759
0.351347
0.2555095
0.3472996
0.3469714
0.2301809
0.3524824
0.3512947
0.2553933
0.3465728
0.3464439
0.3503824
0.3501377
0.2557025
0.3465241
0.346925
0.3501344
0.3503668
0.3463966
0.3500663
0.4496481
0.5527201
0.5497915
0.4513817
0.5515932
1.049945
1.151002
1.149999
1.048817
1.17448
1.151004
1.250004
1.350851
1.350015
1.22518
1.249164
1.351054
1.449256
1.549243
1.571114
1.444726
1.444153
1.548846
1.572496
1.627624
1.749909
1.775638
1.64874
1.627257
1.750803
1.772691
1.609041
1.647889
1.753772
1.624035
1.775482
1.849894
1.950681
1.950149
1.848945
1.951053
1.824481
1.949967
1.975549
1.848939
1.825041
1.950979
1.974993
1.85271
1.949916
1.82448
1.975498
2.05001
2.15107
2.150039
2.049017
2.150964
2.024544
2.150082
2.176812
2.048995
2.024945
2.151095
2.177255
2.04965
2.149789
2.024481
2.175502
2.249962
2.351205
2.350006
2.248891
2.375676
2.350905
2.25027
2.34994
2.349714
2.249054
2.225584
2.350924
2.37441
2.249932
2.350077
2.224492
2.375504
2.449976
2.548227
2.550078
2.425035
2.448983
2.575141
2.551086
2.423176
2.55003
2.575656
2.448873
2.422727
2.551058
2.577214
2.450211
2.550389
2.424419
2.575594
2.650008
2.749292
2.749908
2.64903
2.77552
2.751045
2.610562
2.650076
2.747409
2.624431
2.775535
2.82264
2.949874
2.972196
2.84903
2.82491
2.951171
2.973281
3.02802
3.150371
3.1506
3.051095
3.027058
3.155222
3.155729
3.072893
3.024367
3.075856
3.015145
3.072686
3.024466
3.075834
3.047726
3.145431
3.145044
3.010662
3.010593
3.154262
3.15417
3.023883
3.145764
3.147699
3.010592
3.010937
3.154316
3.154952
3.080728
3.023766
3.077652
3.027364
3.08191
3.022204
3.077037
0.2657998
0.2668652
0.2655891
0.2662166
0.3215653
0.3749183
0.3737153
0.3231318
0.2669128
0.2672816
0.2654203
0.2670468
0.2653958
0.2668589
0.2653599
0.2670822
0.2653655
0.2671098
0.265349
0.2670799
0.2653598
0.2671094
0.2653469
0.2670802
0.265359
0.2671086
0.2653469
0.267081
0.2653595
0.2671089
0.2653472
0.267081
0.2653597
0.2671091
0.265347
0.2670804
0.2653594
0.2671088
0.2653493
0.2670812
0.2653638
0.2671092
0.5248369
0.5755855
0.574916
0.524614
0.7249765
0.7756148
0.7749879
0.7245259
0.9249954
0.9756276
0.9749994
0.9245405
1.125
1.175631
1.175002
1.124544
1.325
1.375631
1.375003
1.324545
1.525
1.575631
1.575003
1.524545
1.534329
1.521777
1.582957
1.523986
1.52885
1.535106
1.582794
1.523249
1.523355
1.535182
1.539719
1.524502
1.534914
1.529776
1.521777
1.521836
1.586337
1.528528
1.581459
1.519497
1.521649
1.533774
1.580813
1.532343
1.581143
1.521897
1.725
1.775631
1.775003
1.724545
1.712187
1.787686
1.712472
1.609459
1.925
1.975631
1.975003
1.924545
1.912204
1.987711
1.912298
2.125
2.175631
2.175003
2.124545
2.112204
2.187708
2.112299