/*--------------------------------*- C++ -*----------------------------------*\
  =========                 |
  \\      /  F ield         | OpenFOAM: The Open Source CFD Toolbox
   \\    /   O peration     | Website:  https://openfoam.org
    \\  /    A nd           | Version:  7
     \\/     M anipulation  |
\*---------------------------------------------------------------------------*/
FoamFile
{
    version     2.0;
    format      ascii;
    class       volScalarField;
    location    "0.1";
    object      Cy;
}
// * * * * * * * * * * * * * * * * * * * * * * * * * * * * * * * * * * * * * //

dimensions      [0 1 0 0 0 0 0];

internalField   nonuniform List<scalar> 
105056
(
0.4498023
0.4502859
0.4502746
0.4502725
0.4502739
0.649942
0.6499111
0.6499052
0.6499046
0.6499056
0.8499908
0.8499805
0.8499792
0.8499796
0.8499801
1.049999
1.049996
1.049997
1.049997
1.049998
1.249999
1.249998
1.249998
1.249999
1.249999
1.449999
1.449998
1.449998
1.449999
1.449999
1.649999
1.649998
1.649998
1.649999
1.649999
1.849999
1.849998
1.849998
1.849998
1.849999
2.049999
2.049998
2.049998
2.049998
2.049999
2.249999
2.249998
2.249998
2.249998
2.249999
2.449999
2.449998
2.449998
2.449998
2.449999
2.649999
2.649998
2.649998
2.649998
2.649999
2.849999
2.849998
2.849998
2.849998
2.849999
3.049999
3.049998
3.049998
3.049998
3.049999
3.249999
3.249998
3.249998
3.249998
3.249999
3.449999
3.449998
3.449998
3.449998
3.449999
3.649999
3.649998
3.649998
3.649998
3.649999
3.849999
3.849998
3.849998
3.849998
3.849999
4.049999
4.049998
4.049998
4.049998
4.049999
4.249999
4.249998
4.249998
4.249999
4.249999
4.45
4.449998
4.449999
4.449999
4.449999
4.65
4.649999
4.65
4.650001
4.650001
4.950002
4.85
4.850001
4.850002
4.850002
0.2578177
0.2577722
0.2577761
0.2577775
0.2577784
0.4512075
0.4997557
0.5001547
0.5002022
0.5002071
0.5002114
0.6499992
0.6999236
0.6999618
0.6999788
0.699986
0.6999908
0.8499983
0.8999912
0.8999991
0.9000078
0.9000135
0.9000171
1.05
1.100003
1.100009
1.100015
1.10002
1.100022
1.25
1.300003
1.300008
1.300012
1.300016
1.300017
1.45
1.500002
1.500005
1.500008
1.50001
1.500012
1.65
1.700001
1.700003
1.700005
1.700006
1.700007
1.85
1.900001
1.900002
1.900003
1.900004
1.900004
2.05
2.1
2.100001
2.100002
2.100002
2.100003
2.25
2.3
2.300001
2.300001
2.300001
2.300001
2.45
2.5
2.5
2.500001
2.500001
2.500001
2.65
2.7
2.7
2.7
2.7
2.7
2.85
2.9
2.9
2.9
2.9
2.9
3.05
3.1
3.1
3.1
3.1
3.1
3.25
3.3
3.3
3.3
3.3
3.3
3.45
3.5
3.5
3.5
3.5
3.5
3.65
3.7
3.7
3.7
3.700001
3.700001
3.85
3.9
3.900001
3.900001
3.900001
3.900001
4.05
4.100001
4.100001
4.100002
4.100003
4.100003
4.25
4.300001
4.300003
4.300004
4.300005
4.300005
4.45
4.500001
4.500003
4.500005
4.500006
4.500007
4.650001
4.699999
4.700001
4.700003
4.700004
4.700005
4.950001
4.899996
4.899997
4.899999
4.899999
4.9
0.257894
0.2577941
0.2578022
0.2578062
0.2578065
0.4519451
0.5001188
0.5008055
0.5009816
0.5010241
0.5010335
0.650024
0.7000896
0.7003179
0.7004512
0.7005015
0.7005186
0.8499978
0.9000521
0.9001348
0.9001974
0.900229
0.9002434
1.05
1.100028
1.100066
1.100101
1.100121
1.100132
1.25
1.300014
1.300035
1.300054
1.300066
1.300073
1.449999
1.500008
1.500019
1.500029
1.500037
1.500041
1.649999
1.700004
1.70001
1.700016
1.70002
1.700023
1.849999
1.900002
1.900005
1.900009
1.900011
1.900013
2.049999
2.100001
2.100003
2.100005
2.100006
2.100007
2.249999
2.300001
2.300002
2.300003
2.300004
2.300004
2.449999
2.5
2.500001
2.500002
2.500002
2.500002
2.649999
2.7
2.700001
2.700001
2.700001
2.700001
2.849999
2.9
2.9
2.9
2.900001
2.900001
3.049999
3.1
3.1
3.1
3.1
3.1
3.249999
3.3
3.3
3.3
3.3
3.3
3.449999
3.5
3.5
3.5
3.5
3.5
3.649999
3.7
3.7
3.7
3.7
3.7
3.849999
3.9
3.9
3.9
3.900001
3.900001
4.049999
4.1
4.1
4.100001
4.100001
4.100001
4.249999
4.3
4.3
4.300001
4.300002
4.300002
4.449999
4.499999
4.499999
4.5
4.500001
4.500001
4.649999
4.699998
4.699997
4.699998
4.699998
4.699999
4.849999
4.899997
4.899996
4.899996
4.899996
4.899996
0.2579038
0.2578073
0.2578171
0.2578221
0.257822
0.4519658
0.5001661
0.5008947
0.5011121
0.5011754
0.5011894
0.6500303
0.7001565
0.7004743
0.7006891
0.7007834
0.7008143
0.8499997
0.9000937
0.9002415
0.900373
0.9004481
0.9004788
1.050001
1.100049
1.100121
1.10019
1.100234
1.100254
1.25
1.300025
1.300062
1.300099
1.300125
1.30014
1.45
1.500013
1.500032
1.500052
1.500067
1.500076
1.65
1.700007
1.700017
1.700028
1.700036
1.700042
1.85
1.900004
1.900009
1.900015
1.90002
1.900023
2.05
2.100002
2.100005
2.100008
2.100011
2.100013
2.25
2.300001
2.300003
2.300004
2.300006
2.300007
2.45
2.500001
2.500002
2.500002
2.500003
2.500004
2.65
2.7
2.700001
2.700001
2.700002
2.700002
2.85
2.9
2.9
2.900001
2.900001
2.900001
3.05
3.1
3.1
3.1
3.100001
3.100001
3.25
3.3
3.3
3.3
3.3
3.3
3.45
3.5
3.5
3.5
3.5
3.5
3.65
3.7
3.7
3.7
3.7
3.7
3.85
3.9
3.9
3.899999
3.899999
3.899999
4.05
4.099999
4.099999
4.099999
4.099999
4.099999
4.25
4.299999
4.299998
4.299997
4.299997
4.299997
4.45
4.499998
4.499996
4.499995
4.499995
4.499994
4.649999
4.699997
4.699995
4.699993
4.699992
4.699992
4.849999
4.899998
4.899996
4.899994
4.899993
4.899992
0.257906
0.2578111
0.2578217
0.2578271
0.2578269
0.4519627
0.5001723
0.5009085
0.5011365
0.5012073
0.501224
0.6500314
0.7001761
0.7005175
0.700755
0.7008673
0.7009063
0.8500007
0.9001109
0.9002854
0.9004509
0.9005561
0.9006022
1.050001
1.10006
1.100149
1.100244
1.100316
1.100355
1.250001
1.300031
1.300078
1.300127
1.300166
1.30019
1.45
1.500016
1.500041
1.500067
1.500088
1.500101
1.65
1.700009
1.700022
1.700035
1.700047
1.700055
1.85
1.900005
1.900012
1.900019
1.900025
1.90003
2.05
2.100003
2.100006
2.10001
2.100014
2.100016
2.25
2.300001
2.300003
2.300006
2.300007
2.300009
2.45
2.500001
2.500002
2.500003
2.500004
2.500005
2.65
2.7
2.700001
2.700002
2.700002
2.700003
2.85
2.9
2.9
2.900001
2.900001
2.900001
3.05
3.1
3.1
3.1
3.100001
3.100001
3.25
3.3
3.3
3.3
3.3
3.3
3.45
3.5
3.5
3.5
3.5
3.5
3.65
3.7
3.7
3.699999
3.699999
3.699999
3.85
3.9
3.899999
3.899999
3.899998
3.899998
4.05
4.099999
4.099998
4.099997
4.099997
4.099996
4.25
4.299998
4.299997
4.299995
4.299994
4.299993
4.45
4.499997
4.499995
4.499992
4.49999
4.499989
4.65
4.699997
4.699994
4.699991
4.699988
4.699987
4.95
4.899998
4.899995
4.899993
4.89999
4.899988
0.2579055
0.2578113
0.257822
0.2578273
0.2578271
0.4519666
0.5001723
0.5009085
0.5011364
0.5012074
0.501224
0.6500318
0.700176
0.7005175
0.7007551
0.7008673
0.7009063
0.850001
0.9001108
0.9002853
0.9004509
0.9005562
0.9006023
1.050002
1.10006
1.100149
1.100244
1.100316
1.100355
1.250001
1.300031
1.300078
1.300127
1.300166
1.30019
1.450001
1.500016
1.500041
1.500067
1.500088
1.500101
1.65
1.700009
1.700022
1.700035
1.700047
1.700055
1.85
1.900005
1.900012
1.900019
1.900025
1.90003
2.05
2.100003
2.100006
2.10001
2.100014
2.100016
2.25
2.300001
2.300003
2.300006
2.300007
2.300009
2.45
2.500001
2.500002
2.500003
2.500004
2.500005
2.65
2.7
2.700001
2.700002
2.700002
2.700003
2.85
2.9
2.9
2.900001
2.900001
2.900002
3.05
3.1
3.1
3.1
3.100001
3.100001
3.25
3.3
3.3
3.3
3.3
3.3
3.45
3.5
3.5
3.5
3.5
3.5
3.65
3.7
3.7
3.699999
3.699999
3.699999
3.85
3.9
3.899999
3.899999
3.899999
3.899998
4.05
4.099999
4.099998
4.099997
4.099997
4.099996
4.25
4.299998
4.299997
4.299995
4.299994
4.299993
4.45
4.499997
4.499995
4.499992
4.49999
4.499989
4.65
4.699997
4.699994
4.699991
4.699987
4.699985
4.95
4.899998
4.899995
4.899991
4.899987
4.899985
0.2579054
0.2578096
0.2578197
0.2578248
0.2578246
0.4519599
0.5001651
0.5008945
0.5011121
0.5011755
0.5011895
0.6500308
0.7001561
0.7004742
0.7006892
0.7007835
0.7008145
0.8500006
0.9000937
0.9002416
0.9003731
0.9004481
0.9004788
1.050002
1.100049
1.100121
1.10019
1.100234
1.100254
1.250001
1.300025
1.300062
1.300099
1.300125
1.30014
1.450001
1.500013
1.500032
1.500052
1.500067
1.500076
1.65
1.700007
1.700017
1.700028
1.700036
1.700042
1.85
1.900004
1.900009
1.900015
1.90002
1.900023
2.05
2.100002
2.100005
2.100008
2.100011
2.100013
2.25
2.300001
2.300003
2.300004
2.300006
2.300007
2.45
2.5
2.500001
2.500002
2.500003
2.500004
2.65
2.7
2.700001
2.700001
2.700002
2.700002
2.85
2.9
2.9
2.900001
2.900001
2.900001
3.05
3.1
3.1
3.1
3.100001
3.100001
3.25
3.3
3.3
3.3
3.3
3.3
3.45
3.5
3.5
3.5
3.5
3.5
3.65
3.7
3.7
3.7
3.7
3.7
3.85
3.9
3.9
3.899999
3.899999
3.899999
4.05
4.099999
4.099999
4.099999
4.099999
4.099999
4.25
4.299999
4.299998
4.299997
4.299997
4.299997
4.45
4.499998
4.499996
4.499995
4.499994
4.499994
4.65
4.699997
4.699995
4.699992
4.699991
4.69999
4.949999
4.899998
4.899995
4.899991
4.899987
4.899985
0.2578994
0.2577985
0.2578065
0.257811
0.257811
0.4519589
0.5001188
0.5008055
0.5009817
0.5010242
0.5010337
0.650029
0.7000896
0.7003179
0.7004511
0.7005014
0.7005186
0.8499996
0.900052
0.9001347
0.9001974
0.9002291
0.9002434
1.050001
1.100028
1.100066
1.100101
1.100121
1.100132
1.250001
1.300014
1.300035
1.300054
1.300067
1.300074
1.450001
1.500008
1.500019
1.500029
1.500037
1.500041
1.650001
1.700004
1.70001
1.700016
1.70002
1.700023
1.850001
1.900002
1.900005
1.900009
1.900011
1.900013
2.05
2.100001
2.100003
2.100005
2.100006
2.100007
2.25
2.300001
2.300002
2.300003
2.300004
2.300004
2.45
2.5
2.500001
2.500002
2.500002
2.500002
2.65
2.7
2.700001
2.700001
2.700001
2.700001
2.85
2.9
2.9
2.9
2.900001
2.900001
3.05
3.1
3.1
3.1
3.1
3.1
3.25
3.3
3.3
3.3
3.3
3.3
3.45
3.5
3.5
3.5
3.5
3.5
3.650001
3.7
3.7
3.7
3.7
3.7
3.850001
3.9
3.9
3.9
3.900001
3.900001
4.050001
4.1
4.1
4.100001
4.100001
4.100002
4.250001
4.3
4.3
4.300001
4.300002
4.300002
4.45
4.499999
4.499999
4.5
4.500001
4.500002
4.65
4.699998
4.699997
4.699997
4.699998
4.699998
4.949999
4.899997
4.899996
4.899994
4.899993
4.899991
0.2579217
0.2578583
0.2578664
0.257869
0.2578697
0.451795
0.4997563
0.5001547
0.5002022
0.5002071
0.5002115
0.6500148
0.6999238
0.6999617
0.6999788
0.699986
0.6999909
0.8499991
0.8999912
0.8999991
0.9000077
0.9000135
0.9000171
1.050001
1.100003
1.100009
1.100015
1.10002
1.100022
1.250001
1.300003
1.300008
1.300012
1.300015
1.300017
1.450001
1.500002
1.500005
1.500008
1.50001
1.500012
1.650001
1.700001
1.700003
1.700005
1.700006
1.700007
1.850001
1.900001
1.900002
1.900003
1.900004
1.900004
2.050001
2.1
2.100001
2.100002
2.100002
2.100003
2.250001
2.3
2.300001
2.300001
2.300001
2.300001
2.450001
2.5
2.5
2.500001
2.500001
2.500001
2.650001
2.7
2.7
2.7
2.7
2.7
2.850001
2.9
2.9
2.9
2.9
2.9
3.050001
3.1
3.1
3.1
3.1
3.1
3.250001
3.3
3.3
3.3
3.3
3.3
3.450001
3.5
3.5
3.5
3.5
3.5
3.650001
3.7
3.7
3.7
3.700001
3.700001
3.850001
3.9
3.900001
3.900001
3.900001
3.900001
4.050001
4.100001
4.100001
4.100002
4.100003
4.100003
4.250001
4.300001
4.300003
4.300004
4.300005
4.300006
4.450001
4.500001
4.500003
4.500006
4.500007
4.500008
4.650001
4.7
4.700001
4.700004
4.700006
4.700008
4.949999
4.899996
4.899999
4.900002
4.900004
4.900006
0.2297196
0.2295218
0.2295191
0.2295192
0.2295193
0.4269826
0.4487809
0.4488105
0.4488113
0.4488121
0.4488165
0.6245285
0.6498504
0.649779
0.6497752
0.6497775
0.6497811
0.8245256
0.8499782
0.8499502
0.8499523
0.8499557
0.849958
1.024526
1.049996
1.049979
1.049983
1.049987
1.049989
1.224526
1.249998
1.249983
1.249987
1.249991
1.249992
1.424526
1.449998
1.449983
1.449987
1.44999
1.449992
1.624526
1.649998
1.649982
1.649986
1.649989
1.649991
1.824526
1.849998
1.849982
1.849986
1.849989
1.84999
2.024526
2.049998
2.049982
2.049986
2.049989
2.04999
2.224526
2.249998
2.249982
2.249986
2.249989
2.24999
2.424526
2.449998
2.449982
2.449986
2.449989
2.44999
2.624526
2.649998
2.649982
2.649986
2.649989
2.64999
2.824526
2.849998
2.849982
2.849986
2.849989
2.84999
3.024526
3.049998
3.049982
3.049986
3.049989
3.04999
3.224526
3.249998
3.249982
3.249986
3.249989
3.24999
3.424526
3.449998
3.449982
3.449986
3.449989
3.44999
3.624526
3.649998
3.649982
3.649986
3.649989
3.64999
3.824526
3.849998
3.849982
3.849986
3.849989
3.84999
4.024526
4.049998
4.049982
4.049986
4.049989
4.04999
4.224526
4.249998
4.249982
4.249986
4.249989
4.24999
4.424526
4.449998
4.449983
4.449987
4.449989
4.449991
4.624526
4.649999
4.649984
4.649988
4.649991
4.649992
4.824526
4.950002
4.950021
4.950019
4.950019
4.950021
0.375366
0.2279637
0.3772453
0.3456579
0.4255364
0.575485
0.4269809
0.4490378
0.5754838
0.5497676
0.6244887
0.7754981
0.6245285
0.6499306
0.7754742
0.7499767
0.8244984
0.9755003
0.8245257
0.849992
0.9754743
0.9499973
1.0245
1.1755
1.024526
1.049999
1.175474
1.15
1.2245
1.3755
1.224526
1.25
1.375474
1.35
1.4245
1.5755
1.424526
1.45
1.575474
1.55
1.6245
1.7755
1.624526
1.65
1.775474
1.75
1.8245
1.9755
1.824526
1.85
1.975474
1.95
2.0245
2.1755
2.024526
2.05
2.175474
2.15
2.2245
2.3755
2.224526
2.25
2.375474
2.35
2.4245
2.5755
2.424526
2.45
2.575474
2.55
2.6245
2.7755
2.624526
2.65
2.775474
2.75
2.8245
2.9755
2.824526
2.85
2.975474
2.95
3.0245
3.1755
3.024526
3.05
3.175474
3.15
3.2245
3.3755
3.224526
3.25
3.375474
3.35
3.4245
3.5755
3.424526
3.45
3.575474
3.55
3.6245
3.7755
3.624526
3.65
3.775474
3.75
3.8245
3.9755
3.824526
3.85
3.975474
3.95
4.0245
4.1755
4.024526
4.05
4.175474
4.15
4.2245
4.3755
4.224526
4.25
4.375474
4.35
4.4245
4.5755
4.424526
4.45
4.575474
4.55
4.6245
4.775501
4.624526
4.650001
4.775474
4.750001
4.8245
4.975001
4.824526
4.850001
4.975475
4.949999
0.2297446
0.3761192
0.3463878
0.2295707
0.3780291
0.3466786
0.2295699
0.3780391
0.3467453
0.2295676
0.3780641
0.3467652
0.2295681
0.3780603
0.3467734
0.2295678
0.3780605
0.3467734
0.2295685
0.3780469
0.3467721
0.2295677
0.3780644
0.3467717
0.2295677
0.3780659
0.3467743
0.2295677
0.3780635
0.3467739
0.2295682
0.3780509
0.3467693
0.2295689
0.3780257
0.3467634
0.2295681
0.3780402
0.3467618
0.2295689
0.3780676
0.3467496
0.2295696
0.3780628
0.3466842
0.2297445
0.3761262
0.346392
0.2279634
0.3772533
0.34566
0.3753648
0.2295238
0.3462045
0.3464192
0.3748612
0.376554
0.2295191
0.3464427
0.3464434
0.3765581
0.3765582
0.2295192
0.3464426
0.3464424
0.376558
0.3765578
0.2295193
0.3464425
0.3464432
0.3765578
0.3765581
0.3464455
0.3765582
0.4490394
0.5754839
0.5497681
0.425536
0.575485
0.6499307
0.7754743
0.7499768
0.6244887
0.7754981
0.849992
0.9754743
0.9499973
0.8244985
0.9755003
1.049999
1.175474
1.15
1.0245
1.1755
1.25
1.375474
1.35
1.2245
1.3755
1.45
1.575474
1.55
1.4245
1.5755
1.65
1.775474
1.75
1.6245
1.7755
1.85
1.975474
1.95
1.8245
1.9755
2.65
2.775474
2.75
2.6245
2.7755
2.85
2.975474
2.95
2.8245
2.9755
3.25
3.375474
3.35
3.2245
3.3755
3.45
3.575474
3.55
3.4245
3.5755
3.65
3.775474
3.75
3.6245
3.7755
4.45
4.575474
4.55
4.4245
4.5755
4.650001
4.775474
4.750001
4.6245
4.775501
4.850001
4.975475
4.949999
4.8245
4.975009
0.2662712
0.2837012
0.3748616
0.376554
0.2297196
0.2295238
0.3462044
0.3464192
0.3765582
0.3765583
0.2295217
0.2295191
0.3464426
0.3464434
0.3765581
0.3765578
0.2295191
0.2295192
0.3464427
0.3464424
0.3765579
0.3765581
0.2295192
0.2295193
0.3464425
0.3464432
0.3765582
0.2295193
0.3464454
0.4749095
0.4121656
0.4247341
0.4877548
0.6749969
0.6122394
0.624993
0.6877591
0.8749999
0.8122407
0.8249994
0.8877594
1.075
1.012241
1.025
1.087759
1.275
1.212241
1.225
1.287759
1.475
1.412241
1.425
1.487759
1.675
1.612241
1.625
1.687759
1.875
1.812241
1.825
1.887759
2.075
2.012241
2.025
2.087759
2.275
2.212241
2.225
2.287759
2.475
2.412241
2.425
2.487759
2.675
2.612241
2.625
2.687759
2.875
2.812241
2.825
2.887759
3.075
3.012241
3.025
3.087759
3.275
3.212241
3.225
3.287759
3.475
3.412241
3.425
3.487759
3.675
3.612241
3.625
3.687759
3.875
3.812241
3.825
3.887759
4.075
4.012241
4.025
4.087759
4.275
4.212241
4.225
4.287759
4.475
4.412241
4.425
4.487759
4.675
4.612241
4.625
4.687759
4.875001
4.812241
4.825
4.887759
0.2659023
0.2658616
0.2659383
0.2659404
0.2659672
0.2659646
0.2659353
0.2659454
0.2659698
0.2659471
0.265928
0.2659535
0.2659477
0.2659325
0.2659413
0.2659719
0.265793
0.26579
2.05
2.175474
2.15
2.0245
2.1755
2.25
2.375474
2.35
2.2245
2.3755
2.45
2.575474
2.55
2.4245
2.5755
3.05
3.175474
3.15
3.0245
3.1755
3.85
3.975474
3.95
3.8245
3.9755
4.05
4.175474
4.15
4.0245
4.1755
4.25
4.375474
4.35
4.2245
4.3755
0.2651421
0.2831251
0.2647565
0.2827586
0.321962
0.3875776
0.3741178
0.3106658
0.2657766
0.2657744
0.5249646
0.5877577
0.5749853
0.512237
0.7249982
0.7877594
0.7749993
0.7122405
0.9249997
0.9877593
0.9750001
0.9122407
1.125
1.187759
1.175
1.112241
1.325
1.387759
1.375
1.312241
1.525
1.587759
1.575
1.512241
1.725
1.787759
1.775
1.712241
1.925
1.987759
1.975
1.912241
2.125
2.187759
2.175
2.112241
2.325
2.387759
2.375
2.312241
2.525
2.587759
2.575
2.512241
2.725
2.787759
2.775
2.712241
2.925
2.987759
2.975
2.912241
3.125
3.187759
3.175
3.112241
3.325
3.387759
3.375
3.312241
3.525
3.587759
3.575
3.512241
3.725
3.787759
3.775
3.712241
3.925
3.987759
3.975
3.912241
4.125
4.187759
4.175
4.112241
4.325
4.387759
4.375
4.312241
4.525
4.587759
4.575
4.512241
4.725
4.787759
4.775
4.712241
4.925001
4.987504
4.912241
4.975002
0.265922
0.2659361
0.2659413
0.2659674
0.2659497
0.2659608
0.2659415
0.2659357
0.2659486
0.2659549
0.2659049
0.2659134
0.2659709
0.2659572
0.2659246
0.2658732
0.2662776
0.283654
0.265136
0.283123
0.2647543
0.2827315
0.3219657
0.3875749
0.3741199
0.3106371
0.2646786
0.2831106
0.2646899
0.2831132
0.2646768
0.2831189
0.2646757
0.2831163
0.2646747
0.2831187
0.2646752
0.2831184
0.2646745
0.2831184
0.2646743
0.2831185
0.2646742
0.2831184
0.2646742
0.2831185
0.2646741
0.2831186
0.2646741
0.2831185
0.2646742
0.2831186
0.2646742
0.2831186
0.2646742
0.2831186
0.2646743
0.2831186
0.2646746
0.2831186
0.2646744
0.2831186
0.2646752
0.2831187
0.4749098
0.4121645
0.4247349
0.4877547
0.5249646
0.5877577
0.5749854
0.512237
0.6749969
0.6122395
0.624993
0.6877591
0.7249982
0.7877594
0.7749993
0.7122405
0.8749999
0.8122407
0.8249994
0.8877594
0.9249998
0.9877593
0.9750001
0.9122407
1.075
1.012241
1.025
1.087759
1.125
1.187759
1.175
1.112241
1.275
1.212241
1.225
1.287759
1.325
1.387759
1.375
1.312241
1.475
1.412241
1.425
1.487759
1.525
1.587759
1.575
1.512241
1.675
1.612241
1.625
1.687759
1.725
1.787759
1.775
1.712241
1.875
1.812241
1.825
1.887759
1.925
1.987759
1.975
1.912241
2.675
2.612241
2.625
2.687759
2.725
2.787759
2.775
2.712241
2.875
2.812241
2.825
2.887759
2.925
2.987759
2.975
2.912241
3.275
3.212241
3.225
3.287759
3.325
3.387759
3.375
3.312241
3.475
3.412241
3.425
3.487759
3.525
3.587759
3.575
3.512241
3.675
3.612241
3.625
3.687759
3.725
3.787759
3.775
3.712241
4.475
4.412241
4.425
4.487759
4.525
4.587759
4.575
4.512241
4.675
4.612241
4.625
4.687759
4.875001
4.812241
4.825
4.887759
4.925001
4.987505
4.912241
4.975002
5.024526
5.024999
5.024526
5.05
5.012497
5.025001
5.05
5.024992
0.2276629
0.229801
0.4374885
0.4124838
0.4124683
0.4374952
0.6374999
0.6124987
0.6124982
0.6375003
0.8375
0.8124988
0.8124984
0.8375004
1.0375
1.012499
1.012498
1.0375
1.2375
1.212499
1.212498
1.2375
1.4375
1.412499
1.412498
1.4375
1.6375
1.612499
1.612498
1.6375
1.8375
1.812499
1.812498
1.8375
2.0375
2.012499
2.012498
2.0375
2.2375
2.212499
2.212498
2.2375
2.4375
2.412499
2.412498
2.4375
2.6375
2.612499
2.612498
2.6375
2.8375
2.812499
2.812498
2.8375
3.0375
3.012499
3.012498
3.0375
3.2375
3.212499
3.212498
3.2375
3.4375
3.412499
3.412498
3.4375
3.6375
3.612499
3.612498
3.6375
3.8375
3.812499
3.812498
3.8375
4.0375
4.012499
4.012498
4.0375
4.2375
4.212499
4.212498
4.2375
4.4375
4.412499
4.412498
4.4375
4.6375
4.612499
4.612498
4.6375
4.8375
4.812499
4.812498
4.8375
0.2269805
0.2269255
0.2269891
0.2269408
0.2269763
0.2269767
0.2269767
0.2269605
0.2269918
0.2269356
0.2269581
0.2270084
0.226962
0.2269763
0.227058
0.2270589
0.226964
0.2269269
0.3622685
0.387457
0.3874179
0.3623737
0.2269134
0.2269058
0.5624994
0.5875011
0.5875013
0.5624994
0.7625
0.7875012
0.7875016
0.7624996
0.9625
0.9875012
0.9875016
0.9624996
1.1625
1.187501
1.187502
1.1625
1.3625
1.387501
1.387502
1.3625
1.5625
1.587501
1.587502
1.5625
1.7625
1.787501
1.787502
1.7625
1.9625
1.987501
1.987502
1.9625
2.1625
2.187501
2.187502
2.1625
2.3625
2.387501
2.387502
2.3625
2.5625
2.587501
2.587502
2.5625
2.7625
2.787501
2.787502
2.7625
2.9625
2.987501
2.987502
2.9625
3.1625
3.187501
3.187502
3.1625
3.3625
3.387501
3.387502
3.3625
3.5625
3.587501
3.587502
3.5625
3.7625
3.787501
3.787502
3.7625
3.9625
3.987501
3.987502
3.9625
4.1625
4.187501
4.187502
4.1625
4.3625
4.387501
4.387502
4.3625
4.5625
4.587501
4.587502
4.5625
4.7625
4.787501
4.787502
4.7625
4.987502
4.987501
4.9625
4.9625
0.2269864
0.22694
0.2270076
0.2270612
0.227034
0.2270093
0.2269312
0.2269408
0.2269448
0.227033
0.2269002
0.2269228
0.2269435
0.2269566
0.2269951
0.2269349
0.2276837
0.2295757
0.3622691
0.3874551
0.3874188
0.3623681
0.2258907
0.2266397
0.2258931
0.2266364
0.2258907
0.2266397
0.2258931
0.2266364
0.2258907
0.2266397
0.2266364
0.2258931
0.4374889
0.4124834
0.4374951
0.4124689
0.5624994
0.5875011
0.5875012
0.5624994
1.2375
1.212499
1.2375
1.212498
1.3625
1.387501
1.387502
1.3625
1.4375
1.412499
1.4375
1.412498
1.5625
1.587501
1.587502
1.5625
1.6375
1.612499
1.6375
1.612498
1.7625
1.787501
1.787502
1.7625
2.8375
2.812499
2.8375
2.812498
2.9625
2.987501
2.987502
2.9625
3.237501
3.212499
3.212499
3.237501
3.7625
3.787501
3.787502
3.7625
4.4375
4.412499
4.412498
4.4375
4.5625
4.587501
4.587502
4.5625
4.6375
4.612499
4.6375
4.612498
4.725
4.787759
4.775
4.712241
4.987501
4.987501
4.9625
4.9625
0.2268692
0.22712
0.2262515
0.2279821
0.2562504
0.2856911
0.2843564
0.2593112
0.2272814
0.2270209
0.4624949
0.4875002
0.487499
0.4624976
0.6624999
0.6875012
0.6875015
0.6624996
0.8625
0.8875012
0.8875016
0.8624996
1.0625
1.087501
1.087502
1.0625
1.2625
1.287501
1.287502
1.2625
1.4625
1.487501
1.487502
1.4625
1.6625
1.687501
1.687502
1.6625
1.8625
1.887501
1.887502
1.8625
2.0625
2.087501
2.087502
2.0625
2.2625
2.287501
2.287502
2.2625
2.4625
2.487501
2.487502
2.4625
2.6625
2.687501
2.687502
2.6625
2.8625
2.887501
2.887502
2.8625
3.0625
3.087501
3.087502
3.0625
3.2625
3.287501
3.287502
3.2625
3.4625
3.487501
3.487502
3.4625
3.6625
3.687501
3.687502
3.6625
3.8625
3.887501
3.887502
3.8625
4.0625
4.087501
4.087502
4.0625
4.2625
4.287501
4.287502
4.2625
4.4625
4.487501
4.487502
4.4625
4.6625
4.687501
4.687502
4.6625
4.8625
4.887501
4.887502
4.8625
0.2269701
0.2269178
0.2269789
0.2269322
0.2270601
0.2270056
0.226936
0.2269387
0.227025
0.2270245
0.2269704
0.2269204
0.2269103
0.226997
0.2269535
0.2269346
0.2269456
0.2269961
2.012241
2.025
2.087759
2.075
2.412241
2.487759
2.475
2.425
2.587759
2.575
2.512241
2.525
3.012241
3.025
3.087759
3.075
3.187759
3.175
3.112241
3.125
3.812241
3.825
3.887759
3.875
3.987759
3.912241
3.925
3.975
4.012241
4.087759
4.075
4.025
4.187759
4.112241
4.125
4.175
4.212241
4.287759
4.275
4.225
4.387759
4.375
4.312241
4.325
0.3369028
0.3116693
0.3110616
0.3371672
0.2269544
0.226946
0.5374991
0.5124982
0.5124969
0.5375
0.7375
0.7124988
0.7124984
0.7375004
0.9375
0.9124988
0.9124984
0.9375004
1.1375
1.112499
1.112498
1.1375
1.3375
1.312499
1.312498
1.3375
1.5375
1.512499
1.512498
1.5375
1.7375
1.712499
1.712498
1.7375
1.9375
1.912499
1.912498
1.9375
2.1375
2.112499
2.112498
2.1375
2.3375
2.312499
2.312498
2.3375
2.5375
2.512499
2.512498
2.5375
2.7375
2.712499
2.712498
2.7375
2.9375
2.912499
2.912498
2.9375
3.1375
3.112499
3.112498
3.1375
3.3375
3.312499
3.312498
3.3375
3.5375
3.512499
3.512498
3.5375
3.7375
3.712499
3.712498
3.7375
3.9375
3.912499
3.912498
3.9375
4.1375
4.112499
4.112498
4.1375
4.3375
4.312499
4.312498
4.3375
4.5375
4.512499
4.512498
4.5375
4.7375
4.712499
4.712498
4.7375
4.9375
4.912499
4.912499
4.9375
0.2269728
0.2269186
0.2269407
0.2269428
0.2269468
0.226938
0.2269782
0.2269881
0.2269329
0.2269901
0.2268944
0.2268994
0.2270126
0.2270743
0.2270119
0.2269861
0.2273215
0.2270555
0.3369027
0.3116314
0.3110576
0.3371521
0.2258907
0.2266397
0.2266364
0.2258931
0.2258907
0.2266397
0.2258931
0.2266364
0.462495
0.4875002
0.4624976
0.4874991
0.5374991
0.5124982
0.5124969
0.5375
1.2625
1.287501
1.2625
1.287502
1.3375
1.312499
1.312498
1.3375
1.4625
1.487501
1.4625
1.487502
1.5375
1.512499
1.512498
1.5375
1.6625
1.687501
1.6625
1.687502
1.7375
1.712499
1.712498
1.7375
2.8625
2.887501
2.8625
2.887502
2.9375
2.912499
2.912498
2.9375
3.2625
3.287501
3.2625
3.287502
3.3375
3.312499
3.312498
3.3375
3.7375
3.712499
3.712498
3.7375
4.4625
4.487501
4.4625
4.487502
4.5375
4.512499
4.512498
4.5375
4.662499
4.687501
4.662499
4.687501
4.937501
4.912499
4.912499
4.937501
5.012499
5.012499
5.037501
5.037501
5.025001
5.012496
5.05
5.050001
5.050001
5.049997
5.049982
5.049986
5.049992
5.049997
0.2831113
0.2646905
0.2646787
0.2831133
0.2646747
0.2831188
0.2646752
0.2831184
0.2646742
0.2831185
0.2646742
0.2831186
0.2646742
0.2831186
0.2646742
0.2831187
0.2646747
0.2831187
0.2646744
0.2831187
0.225915
0.2266471
0.2259019
0.22666
0.2259132
0.2266466
0.2259012
0.2266583
0.2258919
0.2266416
0.2266368
0.2258963
0.2258908
0.2266397
0.2258931
0.2266365
0.2258908
0.2266398
0.2266365
0.2258931
0.2258908
0.2266397
0.2258931
0.2266365
0.2258907
0.2266397
0.2266364
0.2258931
0.6374999
0.6124987
0.6375004
0.6124982
0.9625
0.9875012
0.9875016
0.9624996
1.0375
1.012499
1.0375
1.012498
1.1625
1.187501
1.187502
1.1625
0.2646768
0.2831189
0.2646758
0.2831163
0.2646744
0.2831185
0.2646743
0.2831184
0.2646742
0.2831186
0.2646742
0.2831186
0.2646743
0.2831187
0.2646743
0.2831187
0.2646753
0.2831187
2.187759
2.112241
2.125
2.175
2.212241
2.287759
2.275
2.225
2.387759
2.312241
2.325
2.375
3.987501
3.9625
3.9625
3.987502
4.012499
4.0375
4.0375
4.012499
0.2259476
0.2268149
0.2260336
0.2266986
0.2268804
0.2270923
0.227933
0.2262342
0.2562393
0.2856001
0.2591102
0.2843492
0.2259446
0.2268041
0.2260254
0.2266952
0.2258913
0.2266397
0.2266365
0.2258933
0.2258908
0.2266397
0.2258933
0.2266365
0.2258908
0.2266397
0.2266365
0.2258931
0.2258907
0.2266397
0.2258931
0.2266365
0.2258907
0.2266397
0.2266364
0.2258931
0.2258907
0.2266397
0.2258931
0.2266364
0.2258907
0.2266397
0.2266364
0.2258931
0.2258908
0.2266397
0.2258932
0.2266364
0.6624999
0.6875012
0.6624996
0.6875015
0.8625
0.8875012
0.8624996
0.8875016
0.9375
0.9124988
0.9124984
0.9375004
1.1375
1.112499
1.112498
1.1375
4.8625
4.887501
4.8625
4.887502
4.087501
4.062498
4.062499
4.087501
0.2258907
0.2266397
0.2266364
0.2258931
1.9625
1.987501
1.987502
1.9625
3.5625
3.587501
3.5625
3.587502
3.6375
3.612499
3.6375
3.612498
2.012499
2.0375
2.012498
2.0375
2.187501
2.162499
2.162499
2.187501
2.212499
2.237501
2.237501
2.212499
3.812499
3.8375
3.812498
3.8375
0.7374999
0.7124987
0.7124984
0.7375004
3.5375
3.512499
3.5375
3.512498
3.6625
3.687501
3.6625
3.687502
3.887501
3.862499
3.862499
3.887501
3.912499
3.937501
3.937501
3.912499
5.012499
5.0125
5.037501
5.037501
2.287501
2.262499
2.262499
2.287501
1.8375
1.812499
1.8375
1.812498
2.637501
2.612499
2.612499
2.637501
2.7625
2.787501
2.787502
2.7625
3.3625
3.387501
3.387502
3.3625
3.4375
3.412499
3.4375
3.412498
2.387501
2.362499
2.387501
2.362499
2.412499
2.437501
2.437501
2.412499
3.012499
3.012498
3.0375
3.0375
3.187501
3.187501
3.162499
3.162499
4.187501
4.162499
4.162499
4.187501
4.212499
4.237501
4.237501
4.212499
4.387501
4.387502
4.3625
4.3625
1.8625
1.887501
1.8625
1.887502
1.9375
1.912499
1.912498
1.9375
2.6625
2.687501
2.6625
2.687502
2.7375
2.712499
2.712498
2.7375
3.4625
3.487501
3.4625
3.487502
2.487501
2.462499
2.462499
2.487501
3.087501
3.062499
3.062499
3.087501
3.112499
3.137501
3.137501
3.112499
4.112499
4.137501
4.137501
4.112499
4.312499
4.3375
4.3375
4.312498
2.312499
2.337501
2.337501
2.312499
4.787501
4.787501
4.762499
4.762499
4.837501
4.812499
4.837501
4.812499
2.587501
2.587501
2.562499
2.562499
4.712499
4.712499
4.737501
4.737501
2.087501
2.062499
2.062499
2.087501
2.512499
2.537501
2.537501
2.512499
4.287501
4.2625
4.2625
4.287502
2.112499
2.137501
2.112499
2.137501
0.2266417
0.2258966
0.2258919
0.2266368
0.2258908
0.2266398
0.2258931
0.2266365
0.2258908
0.2266397
0.2258931
0.2266365
0.2258908
0.2266397
0.2258931
0.2266364
0.2258908
0.2266397
0.2258931
0.2266364
0.4502095
0.5500102
0.5501211
0.4487804
0.4487996
0.5495958
0.5495578
0.4502803
0.5501801
0.5501782
0.4488104
0.4488118
0.5495416
0.5495399
0.4502729
0.5501738
0.5501724
0.4488113
0.4488115
0.5495377
0.5495379
0.4502729
0.5501721
0.5501725
0.448812
0.4488133
0.5495382
0.5495396
0.5501734
0.4488164
0.5495421
0.6499187
0.7499748
0.7499617
0.6498503
0.6497937
0.7499487
0.7499504
0.6499075
0.7499545
0.7499516
0.649779
0.6497755
0.7499396
0.7499377
0.6499046
0.7499503
0.74995
0.6497751
0.6497765
0.7499357
0.7499358
0.649905
0.74995
0.7499501
0.6497775
0.649779
0.7499357
0.7499364
0.7499505
0.649781
0.7499372
0.8499835
0.949998
0.9499982
0.8499781
0.849952
0.9499961
0.950013
0.8499794
0.9499972
0.9499967
0.8499502
0.8499506
0.9500093
0.9500088
0.8499794
0.9499965
0.9499964
0.8499523
0.8499544
0.9500072
0.9500068
0.8499799
0.9499963
0.9499964
0.8499557
0.8499569
0.9500064
0.9500066
0.9499965
0.8499579
0.9500066
1.049996
1.15
1.150002
1.049996
1.049977
1.150002
1.150021
1.049996
1.150002
1.150002
1.049979
1.049981
1.150019
1.150018
1.049997
1.150002
1.150002
1.049983
1.049985
1.150017
1.150016
1.049997
1.150002
1.150002
1.049987
1.049988
1.150015
1.150015
1.150002
1.049989
1.150014
1.249998
1.350001
1.350002
1.249998
1.24998
1.350003
1.350022
1.249998
1.350003
1.350003
1.249983
1.249985
1.350019
1.350018
1.249998
1.350002
1.350002
1.249987
1.249989
1.350016
1.350015
1.249999
1.350002
1.350002
1.249991
1.249991
1.350014
1.350014
1.350002
1.249992
1.350013
1.449998
1.550001
1.550002
1.449998
1.44998
1.550003
1.550021
1.449998
1.550002
1.550002
1.449983
1.449985
1.550018
1.550017
1.449999
1.550002
1.550002
1.449987
1.449989
1.550015
1.550014
1.449999
1.550002
1.550002
1.44999
1.449991
1.550013
1.550013
1.550002
1.449992
1.550012
1.649998
1.750001
1.750002
1.649998
1.649979
1.750002
1.750021
1.649998
1.750002
1.750002
1.649982
1.649984
1.750018
1.750017
1.649998
1.750002
1.750002
1.649986
1.649988
1.750015
1.750013
1.649999
1.750002
1.750001
1.649989
1.64999
1.750012
1.750012
1.750001
1.649991
1.750011
1.849998
1.950001
1.950002
1.849998
1.849979
1.950002
1.950021
1.849998
1.950002
1.950002
1.849982
1.849984
1.950018
1.950017
1.849998
1.950002
1.950002
1.849986
1.849988
1.950015
1.950013
1.849999
1.950002
1.950001
1.849989
1.84999
1.950012
1.950011
1.950001
1.84999
1.950011
2.049998
2.150001
2.150002
2.049998
2.049979
2.150002
2.150021
2.049998
2.150002
2.150002
2.049982
2.049984
2.150018
2.150017