/*--------------------------------*- C++ -*----------------------------------*\
  =========                 |
  \\      /  F ield         | OpenFOAM: The Open Source CFD Toolbox
   \\    /   O peration     | Website:  https://openfoam.org
    \\  /    A nd           | Version:  7
     \\/     M anipulation  |
\*---------------------------------------------------------------------------*/
FoamFile
{
    version     2.0;
    format      ascii;
    class       volScalarField;
    location    "0.1";
    object      Cz;
}
// * * * * * * * * * * * * * * * * * * * * * * * * * * * * * * * * * * * * * //

dimensions      [0 1 0 0 0 0 0];

internalField   nonuniform List<scalar> 
82743
(
0.09770909
0.095607
0.09494822
0.09480729
0.09477969
0.09477586
0.09477691
0.09477764
0.09477101
0.09560946
0.09171167
0.09059048
0.09034298
0.09030418
0.09030214
0.09029873
0.09027717
0.09023208
0.09496979
0.09064363
0.08935726
0.08914508
0.08917519
0.0892071
0.08920174
0.08911892
0.08896224
0.09488694
0.09066319
0.08968931
0.08983035
0.09020603
0.09038768
0.09040198
0.09008637
0.0895152
0.09496691
0.09110618
0.0920065
0.09274033
0.09516051
0.09525835
0.09576876
0.09461396
0.09193857
0.09509754
0.09160758
0.09298254
0.04295204
0.04585079
0.04568421
0.04625654
0.04589531
0.0431873
0.0952204
0.09209939
0.09536666
0.04522551
0.01050768
0.04476407
0.09529814
0.09239279
0.09598911
0.04571035
0.009969716
0.09742053
0.09533147
0.0924666
0.09606376
0.04571221
0.009969409
0.09743054
0.09533918
0.09248014
0.09607122
0.04571178
0.009969453
0.09730317
0.09533048
0.09246488
0.09606195
0.04571221
0.009969443
0.09744598
0.0952966
0.09239058
0.09598721
0.0457165
0.009969361
0.0452205
0.09521846
0.09210181
0.0954197
0.04570193
0.009970183
0.04567412
0.09509059
0.09159376
0.09297284
0.04384954
0.01134015
0.01031672
0.009867884
0.01056673
0.0443308
0.09494657
0.09105937
0.0919147
0.09248008
0.09458118
0.09498863
0.09494787
0.09381234
0.09148096
0.09483001
0.09054157
0.08950763
0.08958103
0.0899143
0.09009366
0.09004552
0.08969566
0.08918331
0.09476663
0.09023609
0.08881386
0.08852042
0.08850839
0.08852136
0.08849674
0.08840627
0.08826224
0.09474873
0.09015172
0.08862907
0.08822044
0.08811469
0.08808404
0.08806767
0.08804137
0.08799612
0.2508453
0.251693
0.2521401
0.2521632
0.2521583
0.2521576
0.2521591
0.2521644
0.2521746
0.2508439
0.2946989
0.2918467
0.2908527
0.290553
0.2904743
0.290461
0.2904644
0.2904641
0.2904396
0.2516932
0.2918563
0.2865804
0.2845768
0.2840119
0.283898
0.2838888
0.2838784
0.2838123
0.2836677
0.2521411
0.2909104
0.284694
0.2823074
0.2818095
0.2818492
0.2819094
0.2818848
0.2816626
0.2812062
0.2521664
0.290749
0.2845518
0.28269
0.2830916
0.2837893
0.2840391
0.2840278
0.2834261
0.2820908
0.2521658
0.2909376
0.2853834
0.2853653
0.2884338
0.2905074
0.2905766
0.2909978
0.2897928
0.286576
0.2521711
0.2912606
0.2866034
0.2890286
0.242432
0.2470575
0.246879
0.2475434
0.2469569
0.2420139
0.2521766
0.2915422
0.2875543
0.2911928
0.2462162
0.2124948
0.2929707
0.2521802
0.2917082
0.2880112
0.2918413
0.2467759
0.2924303
0.2521822
0.2917832
0.2881744
0.291932
0.2468486
0.2910012
0.2521828
0.2918038
0.288216
0.2919595
0.2468727
0.2904439
0.2521826
0.2917794
0.2881656
0.2919244
0.2468622
0.2914417
0.2521813
0.2916988
0.2879846
0.2917988
0.2468166
0.2930575
0.2521785
0.2915259
0.2875096
0.2910859
0.2466166
0.2931945
0.2521738
0.2912293
0.2865241
0.2888569
0.2446397
0.2115227
0.2489388
0.2489843
0.2246563
0.291337
0.2521675
0.2908678
0.2852116
0.285031
0.2877955
0.2897771
0.2901373
0.2900212
0.2887183
0.2855115
0.2521622
0.2905783
0.2841668
0.2820723
0.28225
0.2828468
0.283053
0.2829198
0.282255
0.2810006
0.2521609
0.2904266
0.2836298
0.2807677
0.2799755
0.2798675
0.2798567
0.2797752
0.2795242
0.2790789
0.252166
0.2903757
0.2834084
0.2802617
0.2791311
0.278762
0.2786433
0.2785837
0.2784937
0.2783304
0.4503846
0.5008564
0.5017184
0.5018619
0.5018488
0.50184
0.5018417
0.5018474
0.5018477
0.4503837
0.4982798
0.4967401
0.4959668
0.4956699
0.4955734
0.4955522
0.4955527
0.4955452
0.4955027
0.5008592
0.4967557
0.4934243
0.4916351
0.4910101
0.4908612
0.4908425
0.4908245
0.4907317
0.4905234
0.5017323
0.4960493
0.4917902
0.4895174
0.4889283
0.4889558
0.4890212
0.4889743
0.4886675
0.4880267
0.5019007
0.4959215
0.4916637
0.4898814
0.4901101
0.4906869
0.4909151
0.4908457
0.4902054
0.4887564
0.5019291
0.4961189
0.4925086
0.4922113
0.494158
0.4954063
0.4956284
0.4956578
0.4948081
0.4924255
0.5019679
0.4964305
0.4936479
0.4948933
0.4469981
0.4489979
0.4491443
0.4492785
0.448961
0.4466178
0.502007
0.4966807
0.4944594
0.4961584
0.4487765
0.4125388
0.4964492
0.5020347
0.4968233
0.4948552
0.4965204
0.4490431
0.4954509
0.5020506
0.4968905
0.4950252
0.4966042
0.5008511
0.5015679
0.4934947
0.502056
0.4969101
0.4950774
0.4966636
0.5016543
0.4973245
0.4923313
0.5020504
0.4968868
0.4950153
0.4965955
0.5008524
0.5015804
0.4936257
0.5020336
0.4968133
0.4948273
0.4964978
0.4490872
0.4955957
0.5020037
0.4966594
0.4944052
0.4960949
0.4489898
0.4963764
0.5019591
0.4963847
0.4935319
0.4946997
0.4480354
0.412494
0.44973
0.4497356
0.4248315
0.4474855
0.5019067
0.4960206
0.4922618
0.491781
0.493561
0.4947067
0.4949713
0.4948702
0.4940203
0.4915698
0.5018637
0.4957002
0.4911278
0.4889926
0.4889296
0.4893592
0.4895263
0.4893775
0.4886764
0.4872203
0.5018424
0.4955124
0.4904679
0.487419
0.4862931
0.4860577
0.4860048
0.4858832
0.4855277
0.4848661
0.5018398
0.4954323
0.4901588
0.4866988
0.4850832
0.4844848
0.4842778
0.4841773
0.4840328
0.4837589
0.6500095
0.7001647
0.7004024
0.7005118
0.7005029
0.7004945
0.7004936
0.7004931
0.7004872
0.6500102
0.6993475
0.6986571
0.6982206
0.6980204
0.6979463
0.6979266
0.6979227
0.6979093
0.6978674
0.7001685
0.6986708
0.6972502
0.6962702
0.6958519
0.6957349
0.6957129
0.6956946
0.6956206
0.695452
0.700417
0.6982863
0.6963895
0.6951118
0.6947043
0.6947013
0.694735
0.6946918
0.6944619
0.6939637
0.7005497
0.6982083
0.696326
0.6953376
0.6953716
0.6956465
0.6957678
0.6957054
0.6952982
0.6943492
0.7005763
0.6983305
0.6968486
0.6966381
0.6974551
0.6979998
0.6981245
0.6981074
0.6976698
0.6964059
0.7006053
0.6985192
0.6974911
0.6979782
0.6487737
0.6495926
0.6496495
0.6497029
0.6495633
0.6485351
0.700634
0.6986701
0.6979111
0.6985828
0.6495591
0.612543
0.6983603
0.7006543
0.6987597
0.6981154
0.6987627
0.6496912
0.6978748
0.7006662
0.6988042
0.6982034
0.6987913
0.7002512
0.7029742
0.6971451
0.7006709
0.6988177
0.6982286
0.6988029
0.7004301
0.7045159
0.6967246
0.7006677
0.6988022
0.6981967
0.6987864
0.700249
0.7029782
0.6971801
0.7006553
0.6987523
0.6980969
0.6987489
0.6497123
0.697906
0.7006328
0.6986526
0.6978714
0.6985458
0.6496445
0.698326
0.7005985
0.698481
0.6974024
0.69786
0.6492196
0.6125217
0.6499136
0.649914
0.6249718
0.6488693
0.7005567
0.6982493
0.696656
0.6963392
0.6970863
0.6975848
0.6977173
0.6976513
0.6971986
0.6958876
0.7005199
0.6980327
0.6959082
0.6946538
0.6944831
0.6946518
0.6947274
0.6946227
0.6941701
0.6931552
0.7004979
0.6978944
0.6954256
0.693481
0.6925663
0.6923164
0.6922486
0.6921423
0.6918405
0.691238
0.7004884
0.6978256
0.6951764
0.6928588
0.6914845
0.6909029
0.6906981
0.6905946
0.6904393
0.6901394
0.8499887
0.8999476
0.8999387
0.8999339
0.8999273
0.8999226
0.8999214
0.8999191
0.8999141
0.8499902
0.8998348
0.8996555
0.8995273
0.8994598
0.89943
0.899419
0.8994145
0.899406
0.8993864
0.8999484
0.8996602
0.8992964
0.899016
0.8988782
0.8988311
0.8988171
0.898806
0.898776
0.8987117
0.8999447
0.8995524
0.8990593
0.8986907
0.8985469
0.8985283
0.8985298
0.8985089
0.8984296
0.8982603
0.899951
0.8995304
0.8990399
0.8987467
0.898725
0.8987889
0.8988187
0.8987924
0.8986589
0.8983513
0.8999577
0.8995668
0.8991893
0.8991118
0.8993093
0.8994507
0.8994844
0.8994745
0.8993397
0.8989493
0.8999643
0.8996223
0.8993733
0.8994891
0.8495933
0.8498651
0.8498723
0.8498853
0.8498328
0.8494797
0.8999729
0.8996686
0.8994964
0.8996596
0.849858
0.812544
0.8995116
0.8999814
0.8996989
0.8995578
0.8997116
0.8498906
0.8993639
0.899989
0.899717
0.899585
0.8997171
0.8999852
0.9000164
0.8991409
0.8999946
0.8997243
0.8995924
0.8997173
0.8999909
0.9001083
0.8990116
0.8999948
0.899717
0.8995795
0.8997127
0.8999833
0.9000177
0.8991518
0.8999881
0.8996938
0.8995426
0.8997007
0.8499016
0.899374
0.8999771
0.899654
0.8994676
0.8996385
0.8498704
0.8995054
0.8999637
0.8995952
0.899325
0.8994432
0.8497381
0.812533
0.849971
0.849971
0.8249897
0.84961
0.8999497
0.8995225
0.899109
0.8990156
0.8992076
0.8993438
0.8993829
0.8993613
0.8992218
0.8988182
0.8999384
0.8994572
0.8988937
0.8985389
0.8984776
0.8985235
0.8985467
0.8985092
0.8983545
0.8980041
0.8999321
0.8994167
0.8987501
0.8981791
0.8978806
0.8977914
0.8977681
0.8977226
0.8975951
0.8973358
0.8999294
0.8993962
0.8986708
0.8979575
0.8974737
0.897252
0.8971707
0.8971137
0.8970171
0.8968431
1.050002
1.100114
1.100171
1.100188
1.100185
1.100182
1.10018
1.100174
1.100166
1.050001
1.100219
1.100458
1.100616
1.100684
1.100699
1.100695
1.100691
1.100688
1.100693
1.100109
1.10045
1.100884
1.101187
1.101316
1.101344
1.10134
1.101337
1.101355
1.101406
1.100165
1.100594
1.101147
1.101513
1.101628
1.101619
1.101598
1.101604
1.101673
1.101833
1.100188
1.100633
1.101164
1.101425
1.101398
1.101302
1.101254
1.10127
1.101395
1.101696
1.100179
1.100587
1.100995
1.101019
1.100762
1.100592
1.100549
1.100553
1.100682
1.101064
1.100155
1.100512
1.100786
1.100603
1.050128
1.050045
1.05001
1.050001
1.050014
1.050153
1.100143
1.100458
1.100649
1.100413
1.05003
1.012545
1.100449
1.100143
1.100435
1.100587
1.100354
1.049979
1.100563
1.100144
1.100433
1.100566
1.100349
1.100022
1.09996
1.100748
1.100135
1.100439
1.100562
1.100346
1.100014
1.099858
1.100864
1.100118
1.100434
1.100559
1.100344
1.100021
1.099961
1.100754
1.1001
1.100419
1.100565
1.100344
1.049984
1.100576
1.100079
1.100423
1.100615
1.100402
1.049993
1.100478
1.100064
1.100465
1.100757
1.100621
1.050073
1.01254
1.050008
1.050008
1.025001
1.050154
1.100069
1.100543
1.10101
1.101131
1.100938
1.100801
1.100765
1.100788
1.10093
1.101338
1.100085
1.100632
1.101291
1.101736
1.101858
1.101848
1.10184
1.101874
1.102013
1.102341
1.100097
1.1007
1.101505
1.102228
1.102649
1.102814
1.102864
1.102892
1.10297
1.103161
1.100103
1.100739
1.10163
1.102528
1.103167
1.103481
1.103582
1.103593
1.103596
1.103648
1.250021
1.300398
1.300554
1.300593
1.300575
1.300567
1.300572
1.300551
1.300521
1.250021
1.300805
1.30161
1.302111
1.302317
1.302359
1.302355
1.30235
1.302346
1.302364
1.300369
1.301581
1.303054
1.304041
1.304441
1.304528
1.304526
1.304531
1.304591
1.304744
1.30053
1.302043
1.303925
1.305146
1.305502
1.305467
1.305409
1.30544
1.305661
1.30615
1.300601
1.302167
1.303987
1.304872
1.304762
1.304446
1.304305
1.304357
1.304758
1.3057
1.300567
1.302029
1.303437
1.303523
1.302623
1.302047
1.301913
1.301923
1.302352
1.303602
1.300484
1.301797
1.302759
1.302138
1.250748
1.250251
1.250171
1.250133
1.250217
1.250898
1.300451
1.301632
1.302321
1.301509
1.250238
1.212546
1.301562
1.300454
1.301557
1.30212
1.301324
1.250096
1.301976
1.300448
1.301546
1.302048
1.3013
1.299753
1.296983
1.30263
1.300255
1.301564
1.302034
1.30129
1.29957
1.295426
1.303029
1.299976
1.301541
1.302039
1.301295
1.299749
1.296985
1.302636
1.29984
1.301482
1.302077
1.301312
1.250089
1.301994
1.299631
1.301486
1.302248
1.301504
1.250143
1.301627
1.299465
1.301611
1.3027
1.302209
1.250462
1.212547
1.250049
1.25005
1.225014
1.250752
1.299479
1.301836
1.303474
1.303808
1.303056
1.302552
1.302416
1.302481
1.302931
1.304222
1.29952
1.302075
1.304284
1.305615
1.305836
1.305694
1.305626
1.305721
1.306151
1.307129
1.299549
1.302241
1.304835
1.306912
1.307929
1.308238
1.308321
1.308403
1.308653
1.309188
1.299563
1.302328
1.305127
1.307605
1.309106
1.309756
1.309966
1.31002
1.310088
1.310279
1.450111
1.500679
1.500635
1.500546
1.500436
1.500438
1.500503
1.500422
1.500288
1.450082
1.502218
1.504006
1.504915
1.505223
1.505244
1.505221
1.505216
1.505201
1.505203
1.500543
1.503921
1.507073
1.508811
1.509399
1.5095
1.509485
1.509491
1.509572
1.509762
1.500558
1.504804
1.508653
1.510762
1.511275
1.511198
1.511104
1.511144
1.511449
1.512085
1.500635
1.505051
1.508778
1.510333
1.510002
1.509371
1.509117
1.509187
1.509832
1.511277
1.500533
1.504819
1.5079
1.507962
1.505915
1.504636
1.504401
1.504372
1.50521
1.507567
1.500303
1.504395
1.506708
1.505238
1.451902
1.450628
1.450481
1.450386
1.450584
1.452161
1.500286
1.504109
1.505872
1.503948
1.450694
1.412546
1.503343
1.500342
1.503994
1.505487
1.503583
1.450433
1.504136
1.500343
1.504
1.505359
1.503528
1.49915
1.498357
1.505912
1.5001
1.50408
1.50535
1.503498
1.498351
1.502585
1.507051
1.498539
1.503997
1.505377
1.50354
1.499137
1.498358
1.50592
1.499522
1.503712
1.505458
1.503604
1.450403
1.504153
1.498364
1.503614
1.505776
1.503975
1.450501
1.503432
1.498195
1.50377
1.506597
1.505371
1.451209
1.41256
1.450129
1.450129
1.425034
1.451734
1.498177
1.504101
1.507872
1.508351
1.506561
1.5054
1.505109
1.505207
1.506055
1.508378
1.498243
1.504447
1.509054
1.511232
1.511323
1.510905
1.51073
1.510864
1.511536
1.512919
1.498279
1.504663
1.50977
1.512899
1.514089
1.514357
1.51441
1.514506
1.514816
1.515417
1.498283
1.504752
1.51011
1.51367
1.515363
1.515998
1.516197
1.516254
1.516331
1.516526
1.650466
1.701456
1.700533
1.700576
1.699898
1.699888
1.700455
1.699956
1.699572
1.650243
1.70614
1.709018
1.709978
1.710246
1.710149
1.710075
1.710051
1.710045
1.710025
1.700808
1.708836
1.71383
1.715746
1.716265
1.716324
1.716295
1.716293
1.716355
1.71649
1.700262
1.709839
1.715616
1.717863
1.718299
1.718212
1.718125
1.718154
1.718388
1.718846
1.701041
1.710185
1.715755
1.717431
1.716943
1.716165
1.71587
1.715916
1.716564
1.717911
1.700563
1.709903
1.714893
1.714735
1.711581
1.709385
1.709197
1.708932
1.710203
1.713391
1.699736
1.709351
1.71362
1.71107
1.654699
1.651616
1.651372
1.651132
1.651589
1.655092
1.699861
1.709014
1.712641
1.708911
1.652036
1.61255
1.70637
1.700341
1.708875
1.712194
1.708237
1.651585
1.706292
1.700044
1.708959
1.7121
1.708245
1.651532
1.707244
1.700688
1.709223
1.71215
1.70838
1.651635
1.707777
1.700251
1.709336
1.712219
1.708334
1.65158
1.707265
1.646436
1.70908
1.712331
1.708501
1.651595
1.706306
1.64456
1.708854
1.712692
1.709128
1.651732
1.706421
1.644192
1.708938
1.713595
1.711256
1.653156
1.612591
1.650428
1.650429
1.625094
1.653986
1.643993
1.709263
1.714886
1.715062
1.71226
1.710278
1.709805
1.709935
1.711232
1.714131
1.644011
1.709605
1.715958
1.718056
1.717881
1.717282
1.717055
1.717177
1.71782
1.719003
1.644114
1.709779
1.716524
1.719406
1.720221
1.72034
1.720344
1.720409
1.720634
1.721043
1.644034
1.709792
1.716752
1.719936
1.721097
1.721477
1.721587
1.721622
1.721677
1.721801
1.854021
1.851059
1.845221
1.847791
1.844677
1.844207
1.846475
1.845362
1.844047
1.852123
1.902688
1.904866
1.905479
1.90559
1.905523
1.9055
1.905575
1.905501
1.905442
1.848433
1.904749
1.908472
1.909543
1.909771
1.909788
1.909776
1.909777
1.909795
1.909832
1.844618
1.905408
1.909482
1.9107
1.910889
1.910838
1.910792
1.910803
1.910895
1.911052
1.847863
1.905583
1.909458
1.910347
1.910168
1.909726
1.909492
1.909522
1.909894
1.91048
1.847798
1.905461
1.909
1.908024
1.907248
1.904517
1.904036
1.903886
1.90534
1.908038
1.844371
1.905186
1.908478
1.907054
1.861299
1.855541
1.854754
1.854754
1.855626
1.861043
1.844356
1.905067
1.907979
1.904722
1.856753
1.812604
1.857498
1.84717
1.90507
1.90769
1.904046
1.855754
1.855929
1.844924
1.905047
1.90765
1.904053
1.855794
1.855913
1.846637
1.90518
1.907681
1.904213
1.856777
1.856171
1.850135
1.905266
1.907708
1.904121
1.856178
1.856133
1.850346
1.905122
1.907766
1.904325
1.856441
1.855922
1.823912
1.905044
1.908016
1.904891
1.856816
1.856614
1.823532
1.905136
1.908473
1.907122
1.858666
1.812747
1.851518
1.851454
1.82549
1.858951
1.821731
1.905159
1.908985
1.908124
1.907563
1.905343
1.904877
1.904973
1.906104
1.908325
1.821078
1.905298
1.909506
1.91053
1.910456
1.910102
1.909915
1.909964
1.910308
1.910804
1.823681
1.905377
1.90982
1.911233
1.911529
1.911539
1.911523
1.911544
1.911628
1.911763
1.821096
1.905429
1.909909
1.911424
1.911835
1.911942
1.911969
1.911979
1.911997
1.912033
0.04781202
0.178036
0.1780327
0.1467636
0.04751699
0.04620036
0.1776407
0.1794159
0.1453589
0.1445776
0.04590396
0.0457519
0.1794177
0.1794499
0.1442749
0.1440748
0.04572027
0.04570475
0.1794569
0.1794645
0.1440102
0.1439661
0.04570059
0.04569902
0.1794645
0.1794644
0.1439539
0.1439438
0.04569836
0.04569797
0.1794645
0.1794646
0.1439417
0.1439397
0.04569799
0.04569811
0.1794647
0.1794648
0.14394
0.1439405
0.04569861
0.04569975
0.1794649
0.1794656
0.1439425
0.1439458
0.04570163
0.04570486
0.1794661
0.1794694
0.1439527
0.1439622
0.04570801
0.1794709
0.1439732
0.04751801
0.04620056
0.1776391
0.1453581
0.1794159
0.1445777
0.04590404
0.0457521
0.1794177
0.144275
0.17945
0.1440762
0.0457207
0.04570571
0.179457
0.1440123
0.1794648
0.1439724
0.04570222
0.04570218
0.1794648
0.1439631
0.1794653
0.1439629
0.04570286
0.04570474
0.1794654
0.143967
0.1794664
0.1439814
0.04570653
0.04570876
0.1794665
0.14399
0.1794674
0.1440065
0.04613419
0.01143939
0.144398
0.1446422
0.1873924
0.04684627
0.1449118
0.1455756
0.04395129
0.02081225
0.1445085
0.1418797
0.1711325
0.04571054
0.04571218
0.1794675
0.1440145
0.1794681
0.144026
0.009969431
0.1873888
0.04571318
0.04571411
0.1794682
0.1440309
0.1794685
0.1440365
0.009969368
0.04571463
0.04571496
0.1794685
0.1440387
0.1794686
0.1440408
0.009969444
0.04571509
0.04571508
0.1794686
0.1440414
0.1794686
0.1440414
0.009969453
0.04571493
0.04571454
0.1794686
0.1440407
0.1794685
0.1440384
0.009969404
0.04571402
0.04571316
0.1794684
0.1440361
0.1794681
0.1440304
0.009969748
0.04571206
0.04571032
0.1794681
0.1440253
0.1794674
0.1440138
0.01156828
0.02102027
0.02110051
0.1507092
0.146307
0.04570861
0.04570608
0.1794673
0.1440051
0.1794665
0.1439878
0.04570413
0.04570192
0.1794663
0.143978
0.1794655
0.1439613
0.0457005
0.04569955
0.1794654
0.1439544
0.1794651
0.1439456
0.04569945
0.04570033
0.1794651
0.1439447
0.1794659
0.1439453
0.04570229
0.04570559
0.1794665
0.1439526
0.1439623
0.2261718
0.2261687
0.2490731
0.3755754
0.3755738
0.3496612
0.2474074
0.2124638
0.3483992
0.3487536
0.3874537
0.2450738
0.2223331
0.3484011
0.3471055
0.3738801
0.3874497
0.2130751
0.387429
0.2513113
0.2481523
0.3493331
0.3490377
0.2240908
0.246213
0.2464683
0.3874086
0.3754143
0.347833
0.3481302
0.4245074
0.4245058
0.4498423
0.5755457
0.5755452
0.5499148
0.4492005
0.4125136
0.5493788
0.5495452
0.5874644
0.4481805
0.424256
0.5494132
0.5488408
0.5745317
0.5874541
0.4125437
0.587438
0.449201
0.4494457
0.54956
0.549647
0.4244395
0.44864
0.448823
0.5874409
0.5754838
0.5491374
0.5493112
0.424118
0.4485519
0.4478177
0.574966
0.5744081
0.5491187
0.5485506
0.6244717
0.6244724
0.6499525
0.775531
0.7755334
0.7499711
0.6496697
0.6125236
0.7497553
0.7498346
0.7874684
0.6492458
0.6247531
0.7497835
0.7495245
0.7747705
0.7874548
0.6125516
0.7874413
0.6244817
0.6494381
0.6495135
0.7874532
0.7754958
0.7496504
0.749737
0.6246887
0.6493863
0.6490728
0.7749867
0.7747055
0.749649
0.7493821
0.8244647
0.824467
0.8499869
0.9755344
0.9755324
0.9499955
0.8498796
0.8125273
0.9499609
0.9499891
0.9874705
0.8497435
0.8249567
0.9499875
0.9499116
0.9749098
0.9874554
0.8125548
0.9874433
0.8244918
0.8498147
0.8498254
0.9874605
0.9755026
0.9499441
0.9499778
0.8249447
0.8497807
0.8496937
0.9749993
0.9748878
0.9499604
0.9498825
1.024468
1.024466
1.050008
1.175534
1.175536
1.150018
1.050015
1.01253
1.150142
1.150125
1.187473
1.050088
1.025089
1.150169
1.150257
1.175041
1.187456
1.012557
1.187445
1.024498
1.050077
1.050042
1.187467
1.175509
1.150207
1.150195
1.025118
1.050063
1.050147
1.175011
1.175061
1.150242
1.150335
1.224466
1.22447
1.250041
1.375542
1.375537
1.350073
1.250169
1.212532
1.350416
1.350336
1.387476
1.250473
1.225227
1.350438
1.350752
1.375241
1.387457
1.212559
1.387449
1.224505
1.250371
1.250282
1.387479
1.375518
1.350582
1.350503
1.2253
1.250373
1.250645
1.375029
1.375316
1.350634
1.35095
1.424479
1.424472
1.450148
1.575594
1.57557
1.550313
1.450458
1.412536
1.551015
1.550811
1.587486
1.45115
1.425459
1.551038
1.551804
1.575713
1.587461
1.412562
1.587457
1.424515
1.450879
1.450697
1.587507
1.575546
1.55137
1.55117
1.425597
1.450897
1.45147
1.575072
1.575901
1.55145
1.552189
1.624578
1.624532
1.650718
1.776524
1.775915
1.751775
1.651264
1.612546
1.75297
1.752576
1.787533
1.65286
1.62607
1.753056
1.754875
1.777461
1.787497
1.612572
1.787505
1.624559
1.652179
1.651836
1.787631
1.775751
1.75383
1.753468
1.62635
1.65224
1.653455
1.775307
1.777912
1.753988
1.755606
1.826284
1.82488
1.854468
1.978943
1.95347
1.847171
1.857001
1.856953
1.955049
1.95508
1.844332
1.856958
1.856803
1.954987
1.954881
1.856862
1.844977
1.856842
1.954934
1.954899
1.856979
1.845421
1.857483
1.954949
1.955215
1.856945
1.84415
1.856755
1.954949
1.954874
1.854765
1.812606
1.953924
1.952936
1.988581
1.854862
1.952879
1.952865
1.854715
1.952743
1.952868
1.858053
1.828562
1.954049
1.95599
1.978983
1.856779
1.845363
1.856896
1.954882
1.954979
1.989601
1.990037
1.990003
1.990029
1.990027
1.989657
1.989656
1.990214
1.856958
1.822393
1.856556
1.954937
1.954601
1.812636
1.988508
1.848914
1.853448
1.978743
1.978806
1.856422
1.822825
1.856389
1.954918
1.954858
1.824825
1.8567
1.856217
1.98873
1.989385
1.954793
1.954404
1.829119
1.85689
1.858853
1.988949
1.979051
1.954966
1.956261
1.856251
1.820691
1.856204
1.954435
1.954348
1.856448
1.82368
1.856859
1.954553
1.978789
1.955031
1.856868
1.821158
1.8565
1.978788
1.955032
1.954564
1.856357
1.823747
1.856409
1.954467
1.954867
0.07302189
0.02378216
0.07188202
0.0227448
0.0719703
0.02262812
0.07178422
0.02251794
0.07180154
0.02245744
0.07176962
0.02250087
0.07177388
0.02245
0.07176766
0.02250081
0.07177002
0.02244965
0.07176729
0.02250082
0.0717694
0.02244961
0.07176733
0.0225008
0.07176928
0.02244956
0.07176763
0.02250083
0.07176941
0.02244961
0.07176972
0.02250113
0.07177068
0.02245009
0.07177796
0.02250292
0.07177753
0.02245247
0.07188254
0.02274536
0.07197131
0.02262837
0.07178427
0.02251795
0.0718016
0.02245744
0.07176974
0.02250089
0.07177395
0.02245002
0.07176812
0.02250088
0.07177028
0.02244973
0.07176829
0.02250099
0.07177017
0.02244975
0.07176908
0.02250104
0.07177094
0.02244982
0.04392495
0.04378721
0.0223954
0.1387319
0.1421084
0.1416883
0.1738778
0.0456797
0.1439047
0.14391
0.07176983
0.02250117
0.0717718
0.02244987
0.02293154
0.04564967
0.02272308
0.1434821
0.174653
0.1441386
0.1779013
0.009972812
0.08641126
0.08524437
0.0208112
0.04538528
0.1455471
0.1491517
0.07177032
0.02250123
0.07177242
0.02244996
0.022717
0.04571441
0.02271269
0.1442784
0.1781762
0.1442968
0.1783062
0.009969643
0.08517137
0.0851655
0.04598914
0.0449005
0.1517872
0.1526432
0.07177057
0.02250128
0.07177277
0.02245001
0.02271265
0.04571171
0.02271302
0.1442955
0.1783071
0.1442967
0.1783578
0.009969566
0.08516881
0.08517173
0.0446756
0.04459927
0.1523683
0.1520337
0.07177064
0.02250131
0.07177288
0.02245002
0.02271314
0.04571193
0.02271315
0.1442991
0.178369
0.1442994
0.1783698
0.009969634
0.0851742
0.08517509
0.04457716
0.04461253
0.1518664
0.1519091
0.0717706
0.02250131
0.07177288
0.02245001
0.02271304
0.04571327
0.0227129
0.1442978
0.1783592
0.1442963
0.1783018
0.009969576
0.08517405
0.08517239
0.04480528
0.0458806
0.1521495
0.1526105
0.07177037
0.02250127
0.0717727
0.02244997
0.02271307
0.04572013
0.02271934
0.1442943
0.1782897
0.1442787
0.1764431
0.009969563
0.08517045
0.08516573
0.04524859
0.02081132
0.1531091
0.1526755
0.07176994
0.02250117
0.07177232
0.02244992
0.02272941
0.04536214
0.0253554
0.1442083
0.1767618
0.143592
0.1725553
0.009988375
0.08516101
0.08523824
0.07206465
0.00923107
0.07097871
0.009847349
0.0717692
0.02250111
0.07177162
0.02244982
0.01052728
0.04514103
0.04540634
0.1740315
0.1749413
0.1432179
0.1435806
0.02270092
0.04511933
0.04503755
0.1475592
0.1474726
0.1431042
0.1429446
0.02389236
0.04524764
0.04547611
0.1479228
0.1744232
0.1433133
0.1435599
0.02083376
0.04489227
0.04356019
0.1744394
0.1444124
0.1428636
0.1406525
0.07176832
0.02250096
0.07177068
0.02244972
0.07176774
0.02250089
0.07176988
0.02244961
0.07176785
0.02250093
0.07176964
0.02244965
0.07177024
0.02250119
0.07177109
0.02245021
0.2749732
0.2249497
0.2453043
0.2449083
0.224247
0.3453288
0.3473103
0.3471034
0.3747095
0.2476724
0.3488729
0.348852
0.2247545
0.2465983
0.2500355
0.3479753
0.374862
0.3482931
0.3498632
0.287439
0.2480186
0.2510088
0.3490744
0.349278
0.2257554
0.2460686
0.221729
0.3483289
0.375515
0.3479187
0.3748509
0.2215545
0.2420044
0.2446562
0.3468785
0.3746164
0.3449263
0.3468461
0.2743619
0.2241266
0.2237974
0.2873741
0.2240092
0.2747338
0.2741456
0.2246295
0.2462429
0.2464475
0.349472
0.3748918
0.3480481
0.3480702
0.2469542
0.2458663
0.2440858
0.3749734
0.3485429
0.3477441
0.3464533
0.4749941
0.4249889
0.4482757
0.4481858
0.4247839
0.5481264
0.5489489
0.5489241
0.5748926
0.4492608
0.5496149
0.5495958
0.4249066
0.4489559
0.449846
0.5493169
0.5749537
0.5494963
0.5499405
0.4874531
0.449459
0.4491865
0.5496779
0.5495595
0.4245262
0.4487473
0.4248868
0.5495094
0.5755404
0.5492928
0.5749453
0.424702
0.4466993
0.4479488
0.548817
0.574852
0.5479085
0.5487239
0.4748143
0.4249443
0.4246315
0.4874305
0.4247328
0.4749609
0.4746998
0.4249167
0.448812
0.44884
0.5498633
0.5749803
0.5493237
0.5492733
0.4746182
0.4124441
0.4246679
0.4749306
0.424552
0.487306
0.4747705
0.6750043
0.6249984
0.6492929
0.649295
0.6249234
0.7492783
0.7495983
0.7496105
0.7749581
0.6496919
0.7498688
0.7498556
0.6249746
0.6496405
0.649964
0.7497726
0.7749805
0.7498697
0.7499908
0.6874546
0.6497848
0.6496339
0.7498782
0.7498728
0.6245192
0.6495367
0.6249592
0.7498646
0.7755178
0.7497558
0.774979
0.6496303
0.6497586
0.7498698
0.749859
0.6248854
0.6486139
0.6491332
0.7495585
0.774943
0.7491745
0.749498
0.674929
0.62498
0.6248639
0.6874488
0.6248961
0.6749854
0.6748693
0.6249759
0.6495265
0.6495342
0.7499531
0.7749952
0.7497487
0.7497043
0.6748256
0.6125273
0.6248698
0.6749789
0.6248475
0.6873674
0.674908
0.874998
0.8250026
0.8497583
0.8497666
0.8249776
0.9498966
0.9499485
0.9499554
0.9749923
0.8498809
0.9500012
0.9499962
0.8249959
0.8498722
0.8499899
0.9499801
0.9749931
0.9500177
0.9500043
0.8874552
0.8499225
0.8498417
0.9499836
0.9500237
0.8245013
0.8498466
0.8249869
0.9500135
0.9755077
0.9499761
0.9749971
0.8498395
0.8499126
0.9500238
0.9499808
0.8249618
0.8495323
0.8497005
0.9499457
0.9749935
0.9498836
0.9499372
0.8749808
0.8249927
0.8249633
0.8874573
0.8249609
0.8749958
0.8749484
0.8249883
0.8498303
0.8498487
0.9499954
0.9750039
0.9499815
0.9499505
0.8749237
0.812566
0.8249513
0.8749935
0.8249649
0.887398
0.874972
1.075001
1.025001
1.050064
1.05006
1.025009
1.150435
1.150255
1.150251
1.175024
1.050005
1.150117
1.150121
1.025007
1.04999
1.049997
1.150154
1.175005
1.150137
1.150012
1.087456
1.050015
1.049974
1.150075
1.150155
1.024492
1.050033
1.025004
1.150136
1.175499
1.150163
1.175014
1.049975
1.050021
1.150159
1.150089
1.025009
1.050156
1.050091
1.150281
1.175041
1.150509
1.150328
1.075019
1.025001
1.025028
1.087464
1.025002
1.075003
1.075006
1.024997
1.05004
1.05007
1.150032
1.175012
1.15019
1.150172
1.074998
1.012591
1.025005
1.075005
1.025044
1.087422
1.07502
1.275008
1.225006
1.250415
1.250406
1.225043
1.351262
1.350723
1.350727
1.375078
1.250146
1.350301
1.350311
1.22502
1.250139
1.25001
1.350456
1.375026
1.350372
1.350037
1.287456
1.250119
1.250122
1.35021
1.350357
1.224482
1.250255
1.225022
1.350364
1.37548
1.350476
1.375042
1.250128
1.250143
1.350366
1.350244
1.22506
1.250868
1.250531
1.350803
1.375118
1.35143
1.350896
1.275065
1.22501
1.225096
1.287472
1.225046
1.275013
1.275076
1.225006
1.25027
1.250315
1.350086
1.375024
1.350487
1.350482
1.275085
1.212617
1.225062
1.275017
1.225127
1.287451
1.275077
1.475011
1.425003
1.451065
1.451093
1.425109
1.55304
1.551743
1.551837
1.575217
1.450404
1.550728
1.550742
1.425047
1.450512
1.450059
1.551239
1.575093
1.551055
1.55015
1.487458
1.450311
1.450423
1.550513
1.550773
1.424458
1.450723
1.425056
1.551028
1.57546
1.551273
1.575119
1.450434
1.45036
1.550788
1.550581
1.425152
1.452137
1.451305
1.551992
1.575307
1.553347
1.552083
1.475154
1.425024
1.425211
1.487488
1.42512
1.47503
1.475211
1.425019
1.450675
1.450735
1.550234
1.575056
1.551155
1.551149
1.47525
1.412659
1.425154
1.475042
1.425264
1.487508
1.475186
1.675063
1.625035
1.652703
1.652916
1.625291
1.757604
1.754715
1.755135
1.775754
1.65115
1.752469
1.752388
1.625137
1.651713
1.650122
1.753839
1.775245
1.753443
1.749971
1.687468
1.650835
1.650606
1.751644
1.748559
1.624462
1.652113
1.625161
1.753671
1.775733
1.754011
1.775501
1.650624
1.650927
1.748569
1.751747
1.6254
1.65513
1.653194
1.755445
1.776028
1.758075
1.755391
1.675447
1.625067
1.625506
1.68754
1.625321
1.675096
1.675607
1.625068
1.651848
1.651881
1.750741
1.775312
1.753525
1.753433
1.675745
1.612769
1.625402
1.67513
1.625629
1.68769
1.675536
1.876002
1.825455
1.851456
1.856651
1.85768
1.978938
1.978766
1.95402
1.955367
1.846161
1.857817
1.857485
1.97891
1.955419
1.955194
1.84634
1.857354
1.857758
1.955107
1.955393
1.846295
1.858089
1.857735
1.978548
1.955504
1.955374
1.844202
1.857137
1.856864
1.955035
1.954904
1.844746
1.856817
1.856922
1.954881
1.954927
1.856688
1.954847
1.856028
1.849305
1.856828
1.953622
1.954889
1.858302
1.849128
1.85869
1.955633
1.978648
1.955856
1.858257
1.845413
1.857481
1.978847
1.955638
1.955209
1.857898
1.85841
1.826131
1.957053
1.956074
1.95625
1.977732
1.825522
1.856023
1.822435
1.954926
1.976899
1.954431
1.974952
1.887895
1.853378
1.848956
1.978776
1.97874
1.856887
1.846509
1.856964
1.955068
1.955046
1.821905
1.855718
1.821681
1.954305
1.977274
1.954298
1.977293
1.846303
1.845272
1.978743
1.978753
1.857008
1.844913
1.857224
1.954963
1.955059
1.821693
1.856149
1.823098
1.954335
1.977296
1.954512
1.975004
1.845452
1.845737
1.978757
1.978769
1.85795
1.849027
1.858744
1.955453
1.978754
1.955858
1.851329
1.85678
1.851325
1.95492
1.977301
1.954922
1.977302
1.845916
1.845988
1.978778
1.978805
1.859122
1.852482
1.85891
1.97901
1.956086
1.97923
1.955961
1.823087
1.855989
1.822163
1.95453
1.975005
1.954427
1.975062
1.845871
1.845778
1.978832
1.978935
1.85827
1.851944
1.857731
1.955835
1.978783
1.95546
1.990629
1.845586