/*--------------------------------*- C++ -*----------------------------------*\
  =========                 |
  \\      /  F ield         | OpenFOAM: The Open Source CFD Toolbox
   \\    /   O peration     | Website:  https://openfoam.org
    \\  /    A nd           | Version:  7
     \\/     M anipulation  |
\*---------------------------------------------------------------------------*/
FoamFile
{
    version     2.0;
    format      ascii;
    class       volScalarField;
    location    "0.1";
    object      Cz;
}
// * * * * * * * * * * * * * * * * * * * * * * * * * * * * * * * * * * * * * //

dimensions      [0 1 0 0 0 0 0];

internalField   nonuniform List<scalar> 
105056
(
0.04779518
0.04649339
0.04638194
0.04637086
0.04637517
0.04649331
0.04416573
0.04394458
0.04391962
0.0439251
0.04638158
0.04394387
0.04369277
0.04366094
0.04366668
0.04636896
0.04391562
0.04365671
0.04362186
0.04362742
0.04636655
0.04390979
0.04364849
0.04361235
0.04361774
0.04636595
0.04390814
0.04364599
0.0436093
0.04361452
0.04636575
0.04390761
0.04364509
0.04360812
0.04361321
0.04636568
0.04390739
0.04364474
0.04360774
0.04361277
0.04636565
0.04390731
0.04364459
0.04360755
0.04361256
0.04636564
0.04390727
0.04364452
0.04360747
0.04361247
0.04636563
0.04390726
0.0436445
0.04360743
0.04361243
0.04636563
0.04390725
0.04364449
0.04360742
0.04361241
0.04636563
0.04390725
0.04364449
0.04360741
0.04361241
0.04636563
0.04390725
0.04364449
0.04360742
0.04361241
0.04636563
0.04390726
0.0436445
0.04360743
0.04361242
0.04636563
0.04390727
0.04364452
0.04360745
0.04361245
0.04636565
0.0439073
0.04364457
0.04360752
0.04361252
0.04636568
0.04390739
0.04364471
0.04360769
0.04361271
0.04636576
0.04390763
0.04364509
0.04360816
0.0436132
0.04636609
0.04390845
0.04364629
0.04360957
0.04361465
0.04636753
0.0439117
0.04365069
0.04361448
0.04361959
0.0463738
0.04392323
0.0436653
0.04363029
0.04363511
0.1424347
0.04394827
0.04369514
0.04366201
0.04366594
0.2514074
0.2520585
0.2520508
0.2520469
0.2520489
0.2514065
0.2961949
0.2946302
0.2941977
0.2940969
0.2941092
0.2520584
0.2946282
0.2919325
0.2910496
0.2908129
0.2908021
0.2520505
0.2941877
0.2910342
0.2898851
0.2895446
0.289507
0.2520459
0.2940631
0.2907531
0.2894885
0.2890894
0.2890317
0.2520446
0.2940223
0.2906553
0.2893423
0.2889144
0.2888444
0.2520442
0.2940075
0.2906185
0.2892854
0.2888441
0.2887674
0.2520441
0.2940018
0.290604
0.2892625
0.2888152
0.2887353
0.252044
0.2939995
0.2905983
0.2892531
0.2888032
0.2887217
0.252044
0.2939986
0.2905957
0.2892492
0.2887982
0.288716
0.252044
0.2939982
0.2905948
0.2892476
0.2887961
0.2887136
0.252044
0.293998
0.2905944
0.2892469
0.2887951
0.2887124
0.252044
0.293998
0.2905942
0.2892467
0.2887948
0.288712
0.252044
0.293998
0.2905942
0.2892467
0.2887947
0.2887118
0.252044
0.293998
0.2905942
0.2892468
0.2887948
0.2887121
0.252044
0.293998
0.2905945
0.2892471
0.2887952
0.2887126
0.252044
0.2939983
0.2905951
0.289248
0.2887965
0.288714
0.252044
0.2939989
0.2905966
0.2892504
0.2887995
0.2887174
0.252044
0.2940004
0.2906004
0.2892563
0.2888068
0.2887253
0.2520441
0.2940044
0.2906097
0.2892704
0.2888238
0.2887436
0.2520443
0.2940144
0.2906319
0.2893025
0.2888616
0.2887836
0.2520451
0.2940401
0.2906827
0.2893718
0.2889405
0.288865
0.2520482
0.2940987
0.2907838
0.2895013
0.2890828
0.289008
0.2520642
0.2941878
0.2909142
0.2896591
0.2892515
0.2891747
0.4499763
0.4499566
0.4499404
0.4499346
0.4499354
0.449975
0.4989519
0.4980527
0.4976286
0.4974834
0.4974612
0.4499564
0.4980494
0.4961385
0.4951249
0.4947486
0.4946608
0.4499399
0.4976134
0.495101
0.4936223
0.4930211
0.4928594
0.4499328
0.4974398
0.4946675
0.4929455
0.492196
0.4919753
0.4499303
0.4973709
0.4944924
0.4926655
0.4918435
0.4915873
0.4499293
0.4973432
0.494421
0.4925493
0.4916943
0.49142
0.449929
0.4973318
0.4943915
0.492501
0.4916313
0.4913484
0.4499288
0.4973271
0.4943792
0.4924805
0.4916044
0.4913176
0.4499288
0.4973251
0.4943742
0.4924721
0.4915932
0.4913044
0.4499287
0.4973242
0.4943719
0.4924684
0.4915882
0.4912987
0.4499287
0.497324
0.4943711
0.4924669
0.4915863
0.4912963
0.4499287
0.4973238
0.4943707
0.4924663
0.4915855
0.4912952
0.4499287
0.4973238
0.4943706
0.4924661
0.4915854
0.4912952
0.4499287
0.4973238
0.4943707
0.4924663
0.4915855
0.4912953
0.4499287
0.497324
0.4943712
0.4924671
0.4915866
0.4912965
0.4499287
0.4973245
0.4943724
0.4924691
0.4915891
0.4912995
0.4499287
0.4973256
0.4943755
0.4924741
0.4915955
0.4913067
0.4499288
0.4973287
0.4943831
0.4924863
0.4916109
0.4913238
0.449929
0.4973359
0.4944008
0.4925139
0.4916454
0.4913618
0.4499294
0.497352
0.4944384
0.492571
0.4917152
0.4914375
0.4499308
0.4973846
0.4945087
0.4926739
0.4918377
0.4915683
0.4499343
0.4974394
0.494615
0.4928227
0.4920104
0.4917493
0.4499411
0.4975005
0.4947205
0.4929638
0.4921699
0.4919133
0.6499881
0.6499715
0.6499617
0.6499577
0.6499576
0.6499883
0.699648
0.6992584
0.6990178
0.6989136
0.6988865
0.6499714
0.6992557
0.698355
0.6977347
0.6974452
0.6973553
0.6499613
0.6990053
0.6977147
0.6967186
0.6962036
0.6960304
0.6499563
0.6988803
0.697381
0.6961427
0.6954417
0.6951828
0.6499541
0.6988232
0.6972295
0.6958804
0.6950803
0.6947638
0.6499531
0.6987981
0.6971632
0.6957664
0.6949245
0.6945827
0.6499527
0.6987875
0.6971348
0.6957174
0.6948577
0.6945045
0.6499525
0.6987828
0.6971227
0.6956966
0.6948292
0.6944708
0.6499524
0.698781
0.6971174
0.6956877
0.6948169
0.6944563
0.6499524
0.69878
0.6971153
0.6956839
0.6948117
0.6944501
0.6499524
0.6987798
0.6971144
0.6956823
0.6948095
0.6944474
0.6499524
0.6987796
0.697114
0.6956817
0.6948086
0.6944463
0.6499524
0.6987796
0.6971139
0.6956816
0.6948083
0.6944459
0.6499524
0.6987796
0.697114
0.6956817
0.6948086
0.6944464
0.6499524
0.6987798
0.6971145
0.6956824
0.6948095
0.6944474
0.6499524
0.6987802
0.6971156
0.6956843
0.6948122
0.6944505
0.6499524
0.6987813
0.6971185
0.6956892
0.6948186
0.694458
0.6499525
0.6987841
0.6971255
0.6957008
0.6948339
0.6944755
0.6499527
0.6987904
0.6971414
0.6957267
0.6948675
0.6945132
0.6499531
0.6988037
0.6971734
0.6957776
0.6949322
0.6945852
0.6499541
0.6988277
0.6972281
0.6958621
0.6950379
0.6947013
0.6499564
0.6988628
0.6973015
0.6959719
0.6951718
0.6948459
0.6499599
0.6988957
0.6973644
0.6960621
0.6952786
0.6949592
0.8499968
0.849992
0.8499882
0.8499864
0.8499862
0.8499969
0.8999109
0.8998026
0.8997279
0.8996917
0.8996807
0.8499919
0.8998016
0.8995451
0.8993509
0.8992493
0.8992133
0.849988
0.8997231
0.8993434
0.8990196
0.8988281
0.8987549
0.8499858
0.8996795
0.8992252
0.8988049
0.8985245
0.8984049
0.8499846
0.8996581
0.8991674
0.8986992
0.8983664
0.8982127
0.8499841
0.8996483
0.8991411
0.8986522
0.8982991
0.8981318
0.8499839
0.8996439
0.8991294
0.8986318
0.8982701
0.8980972
0.8499838
0.8996421
0.8991244
0.898623
0.8982577
0.8980822
0.8499838
0.8996413
0.8991223
0.8986192
0.8982523
0.8980756
0.8499837
0.899641
0.8991214
0.8986176
0.8982501
0.8980729
0.8499837
0.8996408
0.899121
0.898617
0.898249
0.8980717
0.8499837
0.8996408
0.8991208
0.8986166
0.8982486
0.8980712
0.8499837
0.8996407
0.8991208
0.8986166
0.8982485
0.898071
0.8499837
0.8996407
0.8991207
0.8986165
0.8982485
0.898071
0.8499837
0.8996407
0.8991208
0.8986167
0.8982487
0.8980714
0.8499837
0.8996409
0.8991211
0.8986173
0.8982495
0.8980723
0.8499837
0.8996412
0.8991221
0.8986188
0.8982516
0.8980749
0.8499838
0.8996422
0.8991244
0.8986227
0.8982569
0.8980811
0.8499839
0.8996443
0.8991298
0.8986316
0.8982687
0.8980947
0.8499841
0.8996487
0.8991404
0.8986487
0.898291
0.89812
0.8499845
0.8996564
0.8991577
0.8986756
0.8983251
0.8981578
0.8499855
0.8996664
0.8991781
0.8987054
0.8983611
0.8981966
0.9499959
0.8996738
0.89919
0.8987194
0.8983739
0.898207
1.050001
1.050003
1.050004
1.050004
1.050004
1.050001
1.100089
1.100197
1.100272
1.100308
1.100319
1.050003
1.100198
1.100454
1.100648
1.10075
1.100786
1.050004
1.100276
1.100656
1.100979
1.101171
1.101244
1.050004
1.10032
1.100773
1.101194
1.101475
1.101594
1.050005
1.100341
1.100831
1.101299
1.101633
1.101787
1.050005
1.100351
1.100858
1.101347
1.1017
1.101868
1.050005
1.100355
1.100869
1.101367
1.101729
1.101902
1.050005
1.100357
1.100874
1.101376
1.101741
1.101917
1.050005
1.100358
1.100876
1.101379
1.101747
1.101924
1.050005
1.100358
1.100877
1.101381
1.101749
1.101927
1.050005
1.100359
1.100878
1.101382
1.10175
1.101928
1.050005
1.100359
1.100878
1.101382
1.10175
1.101928
1.050005
1.100359
1.100878
1.101382
1.10175
1.101928
1.050005
1.100359
1.100878
1.101382
1.10175
1.101928
1.050005
1.100358
1.100877
1.101381
1.101749
1.101927
1.050005
1.100358
1.100876
1.10138
1.101747
1.101925
1.050005
1.100357
1.100875
1.101377
1.101743
1.10192
1.050005
1.100356
1.100871
1.10137
1.101734
1.10191
1.050005
1.100353
1.100863
1.101356
1.101716
1.101888
1.050005
1.100346
1.100847
1.10133
1.10168
1.101848
1.050005
1.100335
1.100819
1.101285
1.10162
1.101779
1.050004
1.100319
1.100781
1.101221
1.101534
1.10168
1.150012
1.100302
1.10074
1.101149
1.101431
1.101558
1.250005
1.250016
1.250022
1.250025
1.250025
1.250008
1.300352
1.300741
1.300982
1.301086
1.301113
1.250016
1.300744
1.301644
1.302264
1.302554
1.302644
1.250023
1.300994
1.302284
1.303281
1.303796
1.303969
1.250026
1.301119
1.302618
1.303857
1.304558
1.304817
1.250028
1.301176
1.30277
1.304119
1.304919
1.305236
1.250028
1.301201
1.302836
1.304233
1.305075
1.305417
1.250029
1.301212
1.302865
1.304282
1.305142
1.305495
1.250029
1.301216
1.302877
1.304303
1.30517
1.305529
1.250029
1.301219
1.302882
1.304312
1.305183
1.305543
1.250029
1.30122
1.302884
1.304315
1.305188
1.30555
1.250029
1.30122
1.302885
1.304317
1.30519
1.305553
1.250029
1.30122
1.302885
1.304318
1.305191
1.305553
1.250029
1.30122
1.302885
1.304318
1.305191
1.305554
1.250029
1.30122
1.302885
1.304317
1.305191
1.305553
1.250029
1.30122
1.302884
1.304316
1.305189
1.305551
1.250029
1.301219
1.302883
1.304314
1.305186
1.305547
1.250029
1.301218
1.302879
1.304308
1.305177
1.305538
1.250029
1.301214
1.302871
1.304294
1.305159
1.305517
1.250029
1.301207
1.302853
1.304264
1.30512
1.305473
1.250028
1.301192
1.302816
1.304204
1.305043
1.305387
1.250028
1.301165
1.302752
1.304103
1.304912
1.305242
1.250026
1.301124
1.302661
1.303959
1.304728
1.305035
1.250022
1.301081
1.302568
1.303806
1.30452
1.304796
1.450024
1.450051
1.450064
1.450069
1.450069
1.450021
1.501048
1.501947
1.502371
1.502517
1.502539
1.45005
1.50195
1.503861
1.504875
1.505251
1.505339
1.450064
1.502387
1.504899
1.506378
1.506979
1.507141
1.45007
1.50256
1.505333
1.507055
1.507804
1.508025
1.450073
1.502629
1.505508
1.507335
1.508157
1.508413
1.450074
1.502657
1.505579
1.507451
1.508306
1.50858
1.450074
1.502668
1.505609
1.507499
1.508369
1.508651
1.450074
1.502673
1.505621
1.50752
1.508396
1.508682
1.450075
1.502675
1.505626
1.507528
1.508407
1.508696
1.450075
1.502676
1.505628
1.507532
1.508412
1.508701
1.450075
1.502676
1.505629
1.507533
1.508414
1.508704
1.450075
1.502676
1.505629
1.507534
1.508414
1.508705
1.450075
1.502676
1.505629
1.507534
1.508415
1.508705
1.450075
1.502676
1.505629
1.507534
1.508414
1.508704
1.450075
1.502676
1.505629
1.507533
1.508413
1.508703
1.450075
1.502675
1.505627
1.50753
1.50841
1.508699
1.450074
1.502674
1.505624
1.507524
1.508402
1.508691
1.450074
1.502671
1.505615
1.507511
1.508385
1.508672
1.450074
1.502663
1.505596
1.50748
1.508346
1.508629
1.450074
1.502645
1.505555
1.507417
1.508268
1.508543
1.450072
1.50261
1.505477
1.5073
1.508126
1.508389
1.450069
1.502551
1.505357
1.507123
1.507909
1.508153
1.450062
1.502481
1.505223
1.506922
1.507647
1.507853
1.649727
1.64946
1.649474
1.649479
1.649478
1.649728
1.703805
1.70537
1.705803
1.705904
1.705891
1.64946
1.705372
1.708068
1.708951
1.709187
1.709198
1.649474
1.705812
1.708966
1.710115
1.710455
1.710493
1.649481
1.705937
1.709247
1.710512
1.710911
1.710968
1.649483
1.705978
1.709345
1.710658
1.711086
1.711156
1.649484
1.705993
1.709382
1.710715
1.711156
1.711233
1.649485
1.705998
1.709396
1.710738
1.711185
1.711265
1.649485
1.706001
1.709402
1.710747
1.711197
1.711278
1.649485
1.706002
1.709405
1.710751
1.711202
1.711284
1.649485
1.706002
1.709406
1.710753
1.711204
1.711286
1.649485
1.706002
1.709406
1.710753
1.711205
1.711287
1.649485
1.706002
1.709406
1.710753
1.711205
1.711288
1.649485
1.706002
1.709406
1.710753
1.711206
1.711288
1.649485
1.706002
1.709406
1.710753
1.711205
1.711288
1.649485
1.706002
1.709406
1.710753
1.711205
1.711287
1.649485
1.706002
1.709405
1.710752
1.711203
1.711286
1.649485
1.706001
1.709403
1.710749
1.7112
1.711282
1.649485
1.705999
1.709399
1.710743
1.711192
1.711273
1.649484
1.705995
1.709389
1.710727
1.711173
1.711253
1.649484
1.705985
1.709366
1.710693
1.711132
1.711209
1.649483
1.705958
1.709312
1.710617
1.711044
1.711117
1.649479
1.705897
1.709204
1.710474
1.710879
1.710944
1.649465
1.705803
1.709058
1.710281
1.710644
1.710684
1.823456
1.821565
1.821562
1.821563
1.821563
1.823457
1.855333
1.857336
1.857636
1.857677
1.857664
1.821565
1.857336
1.860931
1.861541
1.861637
1.86162
1.821562
1.857637
1.861544
1.862267
1.862393
1.862377
1.821563
1.857685
1.861653
1.86241
1.86255
1.862537
1.821563
1.857694
1.861678
1.862447
1.862594
1.862582
1.821563
1.857697
1.861685
1.862458
1.862608
1.862598
1.821563
1.857698
1.861688
1.862463
1.862614
1.862604
1.821563
1.857698
1.861689
1.862464
1.862616
1.862606
1.821563
1.857698
1.861689
1.862465
1.862617
1.862607
1.821563
1.857698
1.861689
1.862465
1.862617
1.862608
1.821563
1.857699
1.861689
1.862465
1.862617
1.862608
1.821563
1.857699
1.861689
1.862465
1.862617
1.862608
1.821563
1.857699
1.861689
1.862465
1.862618
1.862608
1.821563
1.857699
1.861689
1.862465
1.862617
1.862608
1.821563
1.857699
1.861689
1.862465
1.862617
1.862608
1.821563
1.857698
1.861689
1.862465
1.862617
1.862608
1.821563
1.857698
1.861689
1.862465
1.862617
1.862607
1.821563
1.857698
1.861689
1.862464
1.862616
1.862606
1.821563
1.857698
1.861688
1.862462
1.862614
1.862604
1.821563
1.857697
1.861684
1.862457
1.862607
1.862597
1.821563
1.85769
1.86167
1.862438
1.862586
1.862575
1.821563
1.857668
1.861627
1.862381
1.862523
1.862512
1.821561
1.857564
1.86149
1.862213
1.862327
1.862294
0.02211573
0.1776165
0.177612
0.147814
0.02225801
0.02142222
0.1765428
0.1466526
0.1784297
0.1461476
0.02140103
0.02138353
0.1784344
0.145959
0.1784377
0.1458885
0.02138255
0.02138132
0.1784376
0.1458613
0.1784372
0.14585
0.02138117
0.02138094
0.1784372
0.1458452
0.1784371
0.1458428
0.02138091
0.02138086
0.1784371
0.1458417
0.178437
0.1458411
0.02138085
0.02138084
0.178437
0.1458407
0.178437
0.1458405
0.02138083
0.02138083
0.178437
0.1458404
0.178437
0.1458403
0.02138083
0.02138082
0.178437
0.1458403
0.178437
0.1458403
0.02138082
0.02138082
0.178437
0.1458402
0.178437
0.1458402
0.02138082
0.02138082
0.178437
0.1458402
0.178437
0.1458402
0.02138082
0.02138082
0.178437
0.1458402
0.178437
0.1458402
0.02138082
0.02138082
0.178437
0.1458402
0.178437
0.1458402
0.02138082
0.02138082
0.178437
0.1458402
0.178437
0.1458402
0.02138082
0.02138082
0.178437
0.1458402
0.178437
0.1458402
0.02138082
0.02138082
0.178437
0.1458402
0.178437
0.1458402
0.02138082
0.02138082
0.178437
0.1458402
0.178437
0.1458402
0.02138082
0.02138083
0.178437
0.1458402
0.178437
0.1458403
0.02138083
0.02138083
0.178437
0.1458403
0.178437
0.1458403
0.02138083
0.02138085
0.178437
0.1458404
0.178437
0.1458406
0.02138086
0.02138092
0.178437
0.1458409
0.1784371
0.1458417
0.02138096
0.02138132
0.1784371
0.1458431
0.1784373
0.1458463
0.02138157
0.02138404
0.1784374
0.1458528
0.1784384
0.1458654
0.02138596
0.07090114
0.1784392
0.1458882
0.1784431
0.1459217
0.2270722
0.2270653
0.2492832
0.3754822
0.3754831
0.3497639
0.4245319
0.4245271
0.4499026
0.5754699
0.5754731
0.5499541
0.6245265
0.6245274
0.6499768
0.7754687
0.7754752
0.7499877
0.8245245
0.8245304
0.849994
0.9754746
0.9754702
0.9499982
1.024527
1.024528
1.050001
1.17547
1.175475
1.150006
1.224523
1.224533
1.250013
1.375476
1.37547
1.350023
1.424533
1.424524
1.450045
1.575472
1.575469
1.550098
1.624517
1.624518
1.650236
1.772928
1.772935
1.750717
1.822385
1.822387
1.852186
1.977884
1.82157
1.853347
1.853852
1.977742
1.978578
1.821562
1.854041
1.854111
1.978599
1.978616
1.821563
1.854138
1.854149
1.978617
1.978618
1.821563
1.854152
1.854151
1.978619
1.978618
1.854145
1.978618
1.853348
1.82157
1.853852
1.977742
1.978578
1.854041
1.821562
1.854111
1.978599
1.978616
1.854139
1.821563
1.85415
1.978617
1.978619
1.854155
1.821563
1.854157
1.978619
1.978619
1.854158
1.821563
1.854159
1.978619
1.978619
1.854159
1.821563
1.854159
1.978619
1.978619
1.85416
1.821563
1.85416
1.978619
1.978619
1.85416
1.821563
1.85416
1.978619
1.978619
1.85416
1.821563
1.85416
1.978619
1.978619
1.85416
1.821563
1.85416
1.978619
1.978619
1.85416
1.821563
1.85416
1.978619
1.978619
1.85416
1.821563
1.85416
1.978619
1.978619
1.85416
1.821563
1.85416
1.978619
1.978619
1.854157
1.821563
1.854154
1.978619
1.978619
1.854147
1.821562
1.854134
1.978618
1.978616
1.854112
1.821557
1.854078
1.978614
1.930988
0.07338011
0.01058487
0.022258
0.02142224
0.1765443
0.1784296
0.1466534
0.1461484
0.02140105
0.02138355
0.1784344
0.1784377
0.1459593
0.1458888
0.02138258
0.02138141
0.1784376
0.1784373
0.1458619
0.1458514
0.0213813
0.02138151
0.1784372
0.1784374
0.1458481
0.1458492
0.02138181
0.1784375
0.1458551
0.07269202
0.01041487
0.07273223
0.01039861
0.07265041
0.01039291
0.07265382
0.01039249
0.0726467
0.0103923
0.07264708
0.01039226
0.0726462
0.01039222
0.07264627
0.01039221
0.0726461
0.01039221
0.07264611
0.01039221
0.07264607
0.01039221
0.07264607
0.01039221
0.07264606
0.01039221
0.07264606
0.01039221
0.07264605
0.01039221
0.07264606
0.01039221
0.07264605
0.01039221
0.07264606
0.01039221
0.07264605
0.01039221
0.07264605
0.01039221
0.07264605
0.01039221
0.07264605
0.01039221
0.07264605
0.01039221
0.07264605
0.01039221
0.07264605
0.01039221
0.07264605
0.01039221
0.07264605
0.01039221
0.07264605
0.01039221
0.07264605
0.01039221
0.07264605
0.01039221
0.07264605
0.01039221
0.07264605
0.01039221
0.07264605
0.01039221
0.07264605
0.01039221
0.07264605
0.01039221
0.07264606
0.01039221
0.07264606
0.01039221
0.07264606
0.01039221
0.07264608
0.01039221
0.07264607
0.01039221
0.07264617
0.01039221
0.07264613
0.01039221
0.07264685
0.01039223
0.07264653
0.01039226
0.07265362
0.01039246
0.07265028
0.01039312
0.2749895
0.2249782
0.4749969
0.4249917
0.6750056
0.6249989
0.8749997
0.8250025
1.075001
1.025001
1.275007
1.225005
1.475005
1.424998
1.675006
1.625004
1.875366
1.825075
1.85416
1.821563
1.85416
1.978619
1.978619
1.85416
1.821563
1.85416
1.978619
1.978619
1.85416
1.821563
1.85416
1.978619
1.978619
1.85416
1.821563
1.85416
1.978619
1.978619
1.85416
1.821563
1.85416
1.978619
1.978619
1.85416
1.821563
1.854159
1.978619
1.978619
1.854159
1.821563
1.854158
1.978619
1.978619
0.07304762
0.01042584
0.0728233
0.01079056
0.07306069
0.01042566
0.07282604
0.01078991
0.1246343
0.1749284
0.07267169
0.01039315
0.0726599
0.01039668
0.07264868
0.01039232
0.07264765
0.01039243
0.0726465
0.01039224
0.07264635
0.01039226
0.07264616
0.01039221
0.07264613
0.01039221
0.07264608
0.01039221
0.07264608
0.01039221
0.07264606
0.01039221
0.07264606
0.01039221
0.07264605
0.01039221
0.07264606
0.01039221
0.07264605
0.01039221
0.07264606
0.01039221
0.07264605
0.01039221
0.07264605
0.01039221
0.07264605
0.01039221
0.07264605
0.01039221
0.07264605
0.01039221
0.07264605
0.01039221
0.07264605
0.01039221
0.07264605
0.01039221
0.07264605
0.01039221
0.07264605
0.01039221
0.07264605
0.01039221
0.07264605
0.01039221
0.07264605
0.01039221
0.07264605
0.01039221
0.07264605
0.01039221
0.07264605
0.01039221
0.07264605
0.01039221
0.07264606
0.01039221
0.07264605
0.01039221
0.07264606
0.01039221
0.07264606
0.01039221
0.07264607
0.01039221
0.07264609
0.01039221
0.07264611
0.01039221
0.07264623
0.01039222
0.07264635
0.01039222
0.07264739
0.01039239
0.07264843
0.01039227
0.07265922
0.03413825
0.01039359
0.0726674
0.3249973
0.3750013
0.5249958
0.574994
0.7249989
0.7749966
0.9249994
0.9750031
1.124998
1.175
1.325
1.374997
1.525007
1.575004
1.725005
1.775016
1.926612
1.989416
1.926944
1.989574
1.927176
1.98921
1.926945
1.989574
1.927174
1.98921
1.927308
1.989585
1.927269
1.989601
1.927328
1.989607
1.92734
1.989603
1.92735
1.989607
1.927346
1.989608
1.927351
1.989608
1.927352
1.989608
1.927353
1.989608
1.927353
1.989608
1.927353
1.989608
1.927354
1.989608
1.927354
1.989608
1.927354
1.989608
1.927354
1.989608
1.927353
1.989608
1.927353
1.989608
1.927353
1.989608
1.927352
1.989608
1.927308
1.989585
1.927267
1.989601
1.927328
1.989607
1.92734
1.989603
1.927349
1.989607
1.927346
1.989608
1.927352
1.989608
1.927352
1.989608
1.927353
1.989608
1.927353
1.989608
1.927353
1.989608
1.927354
1.989608
1.927354
1.989608
1.927354
1.989608
1.927354
1.989608
1.927354
1.989608
1.927354
1.989608
1.927354
1.989608
1.927354
1.989608
1.927354
1.989608
1.927354
1.989608
1.927354
1.989608
1.927354
1.989608
1.927354
1.989608
1.927354
1.989608
1.927354
1.989608
1.927354
1.989608
1.927354
1.989608
1.927354
1.989608
1.927354
1.989608
1.927354
1.989608
1.927354
1.989608
1.927354
1.989607
1.927356
1.989608
1.927354
1.989608
1.927354
1.989608
1.927354
1.989608
1.927354
1.989608
1.927354
1.989608
1.927354
1.989608
1.927354
1.989607
1.927356
1.989608
1.927354
1.989608
1.927354
1.989608
1.927354
1.989608
1.927354
1.989608
1.927354
1.989608
1.927354
1.989608
1.927354
1.989608
1.927354
1.989608
1.927354
1.989608
1.927354
1.989608
1.927354
1.989608
1.927354
1.989608
1.927354
1.989608
1.927354
1.989608
1.927355
1.989608
1.927354
1.989607
1.927347
1.989606
1.927352
1.989607
1.92734
1.989359
1.989606
1.927331
1.821556
0.0709146
0.178444
0.1459458
0.03414132
0.07267571
1.854054
1.930975
0.03514528
0.01020186
0.03518534
0.01083442
0.03518216
0.01083456
0.03518648
0.01083524
0.03518529
0.01083506
0.03518634
0.01083518
0.03518506
0.01083502
0.03518632
0.01083518
0.03518504
0.01083502
0.03518632
0.01083518
0.03518504
0.01083502
0.03518632
0.01083518
0.03518504
0.01083502
0.03518632
0.01083518
0.03518503
0.01083502
0.03518632
0.01083518
0.03518503
0.01083502
0.03518632
0.01083518
0.03518503
0.01083502
0.03518632
0.01083518
0.03518503
0.01083502
0.03518632
0.01083518
0.03518503
0.01083502
0.03518632
0.01083518
0.03518503
0.01083502
0.03518632
0.01083518
0.03518503
0.01083502
0.03518632
0.01083518
0.03518503
0.01083502
0.03518632
0.01083518
0.03518503
0.01083502
0.03518632
0.01083518
0.03518503
0.01083502
0.03518632
0.01083518
0.03518503
0.01083502
0.03518632
0.01083518
0.03518503
0.01083502
0.03518632
0.01083518
0.03518503
0.01083502
0.03518632
0.01083518
0.03518504
0.01083502
0.03518632
0.01083518
0.03518504
0.01083502
0.03518633
0.01083518
0.03518504
0.01083502
0.03518646
0.01083521
0.03518513
0.01083506
0.2374819
0.212493
0.4374815
0.4124937
0.6375068
0.6124935
0.8375152
0.8125112
1.037498
1.012484
1.237512
1.2125
1.437495
1.412481
1.63751
1.61249
1.837513
1.812509
0.0351763
0.01083439
0.03517894
0.01083667
0.1625036
0.1875016
0.03518676
0.01083527
0.03518538
0.01083513
0.03518636
0.01083518
0.03518507
0.01083502
0.03518632
0.01083518
0.03518504
0.01083502
0.03518632
0.01083518
0.03518504
0.01083502
0.03518632
0.01083518
0.03518504
0.01083502
0.03518632
0.01083518
0.03518504
0.01083502
0.03518632
0.01083518
0.03518504
0.01083502
0.03518632
0.01083518
0.03518504
0.01083502
0.03518632
0.01083518
0.03518504
0.01083502
0.03518632
0.01083518
0.03518504
0.01083502
0.03518632
0.01083518
0.03518504
0.01083502
0.03518632
0.01083518
0.03518504
0.01083502
0.03518632
0.01083518
0.03518504
0.01083502
0.03518632
0.01083518
0.03518504
0.01083502
0.03518632
0.01083518
0.03518504
0.01083502
0.03518632
0.01083518
0.03518504
0.01083502
0.03518632
0.01083518
0.03518504
0.01083502
0.03518632
0.01083518
0.03518504
0.01083502
0.03518632
0.01083518
0.03518504
0.01083502
0.03518632
0.01083518
0.03518504
0.01083502
0.03518632
0.01083518
0.03518504
0.01083502
0.03518636
0.0108352
0.0351851
0.01083503
0.03518754
0.01083625
0.03518799
0.01083571
0.3625183
0.3875061
0.5624974
0.5875044
0.7624905
0.7875003
0.9625159
0.9875004
1.162493
1.187491
1.362496
1.387491
1.562513
1.587494
1.762493
1.787488
1.964859
1.989807
1.964822
1.989164
1.96482
1.989162
1.964814
1.989165
1.964815
1.989165
1.964814
1.989165
1.964815
1.989165
1.964814
1.989165
1.989165
1.964815
1.964814
1.989165
1.989165
1.964817
1.964813
1.989165
1.964815
1.989165
1.964814
1.989165
1.989165
1.964815
1.964814
1.989165
1.964815
1.989165
1.964814
1.989165
1.989165
1.964815
1.964814
1.989165
1.964815
1.989165
1.964814
1.989165
1.989165
1.964815
1.964814
1.989165
1.964815
1.989165
1.964814
1.989165
1.989165
1.964815
1.964814
1.989165
1.964815
1.989165
1.964813
1.989165
1.964813
1.989165
1.964814
1.989165
1.964815
1.989165
1.964814
1.989165
1.964815
1.989165
1.964814
1.989165
1.964815
1.989165
1.964814
1.989165
1.989165
1.964815
1.927355
1.989606
1.927354
1.989607
1.989164
1.964813
1.964813
1.989164
0.03498995
0.01086113
0.03512237
0.0108654
0.03507903
0.01086013
0.03515403
0.01089973
0.06173505
0.08718737
0.03518651
0.01083527
0.03518567
0.0108349
0.03518645
0.01083519
0.03518515
0.01083504
0.03518633
0.01083519
0.03518505
0.01083502
0.03518632
0.01083518
0.03518504
0.01083502
0.03518632
0.01083518
0.03518504
0.01083502
0.03518632
0.01083518
0.03518504
0.01083502
0.03518632
0.01083518
0.03518503
0.01083502
0.03518632
0.01083518
0.03518503
0.01083502
0.03518632
0.01083518
0.03518503
0.01083502
0.03518632
0.01083518
0.03518503
0.01083502
0.03518632
0.01083518
0.03518503
0.01083502
0.03518632
0.01083518
0.03518503
0.01083502
0.03518632
0.01083518
0.03518503
0.01083502
0.03518632
0.01083518
0.03518503
0.01083502
0.03518632
0.01083518
0.03518503
0.01083502
0.03518632
0.01083518
0.03518503
0.01083502
0.03518632
0.01083518
0.03518503
0.01083502
0.03518632
0.01083518
0.03518503
0.01083502
0.03518632
0.01083518
0.03518503
0.01083502
0.03518632
0.01083518
0.03518504
0.01083502
0.03518632
0.01083518
0.03518504
0.01083502
0.03518633
0.01083519
0.03518505
0.01083502
0.03518654
0.01083531
0.03518541
0.01083509
0.2624981
0.2875105
0.4624994
0.4875166
0.662496
0.687502
0.8625022
0.8874925
1.06251
1.08749
1.262516
1.287507
1.462501
1.4875
1.662505
1.687486
1.862521
1.887583
1.989608
1.927354
1.989607
1.927356
1.989607
1.989607
1.927356
1.927356
1.989607
1.927356
1.989607
1.927356
1.989608
1.927354
1.989607
1.927356
1.989607
1.927356
1.989607
1.927356
1.989608
1.927354
1.989607
1.927356
1.989608
1.989607
1.927356
1.927354
1.989608
1.989607
1.927355
1.927353
1.989607
1.989607
1.927356
1.927356
1.989607
1.989608
1.927354
1.927356
1.989608
1.927354
1.989608
1.927354
0.03517324
0.01085145
0.03517053
0.01084298
0.1374921
0.1124167
0.03518689
0.01083534
0.03518576
0.01083515
0.03518637
0.01083519
0.03518511
0.01083502
0.03518632
0.01083518
0.03518504
0.01083502
0.03518632
0.01083518
0.03518504
0.01083502
0.03518632
0.01083518
0.03518504
0.01083502
0.03518632
0.01083518
0.03518504
0.01083502
0.03518632
0.01083518
0.03518503
0.01083502
0.03518632
0.01083518
0.03518503
0.01083502
0.03518632
0.01083518
0.03518503
0.01083502
0.03518632
0.01083518
0.03518503
0.01083502
0.03518632
0.01083518
0.03518503
0.01083502
0.03518632
0.01083518
0.03518503
0.01083502
0.03518632
0.01083518
0.03518503
0.01083502
0.03518632
0.01083518
0.03518503
0.01083502
0.03518632
0.01083518
0.03518503
0.01083502
0.03518632
0.01083518
0.03518503
0.01083502
0.03518632
0.01083518
0.03518503
0.01083502
0.03518632
0.01083518
0.03518503
0.01083502
0.03518632
0.01083518
0.03518504
0.01083502
0.03518632
0.01083518
0.03518504
0.01083502
0.03518632
0.01083518
0.03518504
0.01083502
0.03518635
0.01083519
0.03518506
0.01083503
0.03518737
0.01083541
0.03518567
0.01083542
0.3375022
0.3124895
0.5374856
0.512501
0.7374926
0.712512
0.9374996
0.9124807
1.137514
1.112501
1.3375
1.312502
1.537504
1.512499
1.737514
1.7125
1.938251
1.912792
1.964827
1.989152
1.964841
1.989155
1.964814
1.989165
1.989165
1.964815
1.964814
1.989165
1.964815
1.989165
1.964813
1.989165
1.989165
1.964814
1.964813
1.989165
1.964814
1.989165
1.964814
1.989165
1.989165
1.964815
1.964814
1.989165
1.964815
1.989165
1.964814
1.989165
1.989165
1.964815
1.964814
1.989165
1.964815
1.989165
1.964814
1.989165
1.989165
1.964815
1.964814
1.989165
1.964815
1.989165
1.964814
1.989165
1.989165
1.964815
1.964814
1.989165
1.964815
1.989165
1.964814
1.989165
1.989165
1.964815
1.964814
1.989165
1.964815
1.989165
1.964814
1.989165
1.964815
1.989165
1.964814
1.989165
1.989165
1.964815
1.964814
1.989165
1.964815
1.989165
1.964813
1.989165
1.989165
1.964813
1.964813
1.989165
1.964814
1.989164
0.03518836
0.01083666
0.03518961
0.01083691
1.927323
1.989358
1.250022
1.450061
1.649462
1.857538
1.861467
1.862179
1.862265
1.862185
0.01041492
0.07273158
0.07269189
0.01039862
0.07265041
0.01039291
0.07265383
0.01039249
0.07264673
0.0103923
0.0726471
0.01039227
0.07264633
0.01039222
0.07264635
0.01039222
0.07264712
0.01039224
0.07264669
0.01039228
0.03517776
0.01083569
0.03517962
0.01083999
1.964824
1.989165
1.964822
1.989162
1.964815
1.989166
1.989166
1.964819
1.964813
1.989165
1.964815
1.989165
1.964813
1.989165
1.989165
1.964815
1.964813
1.989165
1.964815
1.989165
1.964814
1.989165
1.989165
1.964815
1.964813
1.989165
1.989165
1.964815
1.964814
1.989165
1.964815
1.989165
1.964814
1.989165
1.989165
1.964815
1.964814
1.989165
1.964815
1.989165
0.07267167
0.01039315
0.0726599
0.01039667
0.07264869
0.01039232
0.07264765
0.01039243
0.07264654
0.01039224
0.0726464
0.01039226
0.07264636
0.01039223
0.07264647
0.01039222
0.07264793
0.01039231
1.989607
1.989607
1.927356
1.927356
1.989607
1.989607
1.927356
1.927356
1.989607
1.989607
1.927356
1.927356
1.989165
1.989165
1.964814
1.964815
1.989165
1.964815
1.989165
1.964816
0.0351742
0.01085844
0.03516397
0.010849
1.964922
1.989128
1.989082
1.96484
1.965035
1.989165
1.989189
1.964894
1.964827
1.989142
1.964828
1.989154
1.964814
1.989165
1.989165
1.964814
1.964813
1.989165
1.964814
1.989165
1.964813
1.989165
1.989165
1.964815
1.964813
1.989165
1.964815
1.989165
1.964814
1.989165
1.989165
1.964815
1.964814
1.989165
1.964815
1.989165
1.964814
1.989165
1.989165
1.964815
1.964813
1.989165
1.964815
1.989165
1.964813
1.989165
1.989165
1.964815
1.964814
1.989165
1.989165
1.964815
1.964814
1.989165
1.964815
1.989165
1.964814
1.989165