/*--------------------------------*- C++ -*----------------------------------*\
  =========                 |
  \\      /  F ield         | OpenFOAM: The Open Source CFD Toolbox
   \\    /   O peration     | Website:  https://openfoam.org
    \\  /    A nd           | Version:  7
     \\/     M anipulation  |
\*---------------------------------------------------------------------------*/
FoamFile
{
    version     2.0;
    format      ascii;
    class       volScalarField;
    location    "0.1";
    object      k;
}
// * * * * * * * * * * * * * * * * * * * * * * * * * * * * * * * * * * * * * //

dimensions      [0 2 -2 0 0 0 0];

internalField   nonuniform List<scalar> 
105056
(
0.003723891
0.003738975
0.003738551
0.003738831
0.003738913
0.003723762
0.00374062
0.003739668
0.003740589
0.003740256
0.003722593
0.003740736
0.003739883
0.003740778
0.003740265
0.003722211
0.003740719
0.00373986
0.003740808
0.003740333
0.003722017
0.003740819
0.003739917
0.003740687
0.003740324
0.003722172
0.003740968
0.003739958
0.003740615
0.003740319
0.003722215
0.003741027
0.003740008
0.003740561
0.003740314
0.003722255
0.003741039
0.00374002
0.003740633
0.003740324
0.00372228
0.00374096
0.003740027
0.00374071
0.003740339
0.003722339
0.003740955
0.003740028
0.003740773
0.003740353
0.003722323
0.003740966
0.003740045
0.00374079
0.003740364
0.003722297
0.00374098
0.003740057
0.003740807
0.003740368
0.003722307
0.003740998
0.003740081
0.003740786
0.003740363
0.003722346
0.003741018
0.003740098
0.003740777
0.003740361
0.003722282
0.003741006
0.0037401
0.003740749
0.003740358
0.003722371
0.003741066
0.00374012
0.003740714
0.003740354
0.003722352
0.003741408
0.003740224
0.003740591
0.003740347
0.003722282
0.003741418
0.003740308
0.00374043
0.003740339
0.003722318
0.003741473
0.003740332
0.003740413
0.003740337
0.00372203
0.003741813
0.003740418
0.003740366
0.003740331
0.003722034
0.003741813
0.003740438
0.003740361
0.003740329
0.00372209
0.00374155
0.003740368
0.003740358
0.003740325
0.003418203
0.003741273
0.003740269
0.003740356
0.003740322
0.003722254
0.003738818
0.00373841
0.003738682
0.003738792
0.003444067
0.003413427
0.003411296
0.003411174
0.003411101
0.003411087
0.003442284
0.003412332
0.003411319
0.003411118
0.003411071
0.003411058
0.003439962
0.003412165
0.003411284
0.003411081
0.003411065
0.003411053
0.003440263
0.003412198
0.003411276
0.003411087
0.003411067
0.003411057
0.00344025
0.003412196
0.003411281
0.003411089
0.00341107
0.003411057
0.003440261
0.003412161
0.003411302
0.003411089
0.003411069
0.003411057
0.003440292
0.003412122
0.003411303
0.003411084
0.003411068
0.003411056
0.003440342
0.003412089
0.003411301
0.00341108
0.003411067
0.003411055
0.003440346
0.003412077
0.003411302
0.003411079
0.003411067
0.003411055
0.003440211
0.00341209
0.003411302
0.003411078
0.003411067
0.003411055
0.003440237
0.003412086
0.003411301
0.003411079
0.003411067
0.003411055
0.003440201
0.003412112
0.003411302
0.003411082
0.003411068
0.003411055
0.003440087
0.003412148
0.003411305
0.003411086
0.003411068
0.003411055
0.003439576
0.003412217
0.003411304
0.003411089
0.003411068
0.003411055
0.003439362
0.003412203
0.003411304
0.003411091
0.003411068
0.003411055
0.003439657
0.003412207
0.003411303
0.003411093
0.003411068
0.003411055
0.003439273
0.003412316
0.003411305
0.003411098
0.003411068
0.003411056
0.003439248
0.0034123
0.003411303
0.003411097
0.003411068
0.003411055
0.003439273
0.00341229
0.003411304
0.003411097
0.003411068
0.003411056
0.003439252
0.003412419
0.003411306
0.003411096
0.003411068
0.003411056
0.003439999
0.003412387
0.003411296
0.003411093
0.003411068
0.003411056
0.003440176
0.003412343
0.003411291
0.003411085
0.003411068
0.003411055
0.003440476
0.003412176
0.003411289
0.00341108
0.003411068
0.003411055
0.00372231
0.003740652
0.003739857
0.003740464
0.003740256
0.003441947
0.003412336
0.003411296
0.003411119
0.003411071
0.003411056
0.003442462
0.003412223
0.00341114
0.00341115
0.00341105
0.003411049
0.003443498
0.003411914
0.003411294
0.003411119
0.003411041
0.003411035
0.003443803
0.003411779
0.003411291
0.00341109
0.003411044
0.003411043
0.003442844
0.003411696
0.003411393
0.003411063
0.003411055
0.003411035
0.003442372
0.003411699
0.003411374
0.003411057
0.003411068
0.003411038
0.003442001
0.003411736
0.003411359
0.003411058
0.003411071
0.003411038
0.003441938
0.003411767
0.003411349
0.003411058
0.003411075
0.00341104
0.003441903
0.003411803
0.003411346
0.003411058
0.003411076
0.00341104
0.003441854
0.003411827
0.003411347
0.003411059
0.003411078
0.00341104
0.003441868
0.003411844
0.003411348
0.003411058
0.00341108
0.003411039
0.003441895
0.003411856
0.003411355
0.003411058
0.003411082
0.003411039
0.003441928
0.003411875
0.003411364
0.003411057
0.003411084
0.003411039
0.003441916
0.003411894
0.003411372
0.003411057
0.003411085
0.003411038
0.003442082
0.003411894
0.003411378
0.003411058
0.003411087
0.003411038
0.003442043
0.003411918
0.003411386
0.003411058
0.003411087
0.003411038
0.003442177
0.003411898
0.003411394
0.003411058
0.003411088
0.003411038
0.003442168
0.0034119
0.003411393
0.003411058
0.003411087
0.003411038
0.00344216
0.0034119
0.00341139
0.003411058
0.003411086
0.003411037
0.003442173
0.003411897
0.003411397
0.00341106
0.003411083
0.003411037
0.003442193
0.003411875
0.003411386
0.003411058
0.003411082
0.003411037
0.003442155
0.003411875
0.003411385
0.00341106
0.003411079
0.003411037
0.003443071
0.003411947
0.003411368
0.003411057
0.003411076
0.003411037
0.003720584
0.003741876
0.003740294
0.003740962
0.0037404
0.003439466
0.003412126
0.003411275
0.00341108
0.003411067
0.003411052
0.003442578
0.003411848
0.003411277
0.003411125
0.00341105
0.003411041
0.003442254
0.003412145
0.003411104
0.003411163
0.003411049
0.003411044
0.0034416
0.003412126
0.003411181
0.003411082
0.003411057
0.003411041
0.003441099
0.003412222
0.003411103
0.003411163
0.003411059
0.003411046
0.003441409
0.003412136
0.003411096
0.003411172
0.003411061
0.003411052
0.003441411
0.003412068
0.003411094
0.003411175
0.003411063
0.003411052
0.003441408
0.003412003
0.003411095
0.003411183
0.003411065
0.003411054
0.003441382
0.003411967
0.003411097
0.003411187
0.003411067
0.003411055
0.003441362
0.003411941
0.003411099
0.003411192
0.003411068
0.003411056
0.003441341
0.003411926
0.003411103
0.003411199
0.00341107
0.003411057
0.003441309
0.003411925
0.003411107
0.003411204
0.003411071
0.003411058
0.003441255
0.003411934
0.003411112
0.00341121
0.003411071
0.003411059
0.003441208
0.003411941
0.003411115
0.003411215
0.00341107
0.003411059
0.003441179
0.003411942
0.003411117
0.003411223
0.003411071
0.00341106
0.003441142
0.003411951
0.003411118
0.003411228
0.003411071
0.00341106
0.003441143
0.003411959
0.003411119
0.003411231
0.003411071
0.00341106
0.003441215
0.003411953
0.003411117
0.003411229
0.00341107
0.003411059
0.003441294
0.003411943
0.003411115
0.003411225
0.00341107
0.003411059
0.003441375
0.003411936
0.003411112
0.003411221
0.003411069
0.003411058
0.00344139
0.003411924
0.003411112
0.003411216
0.003411069
0.003411058
0.003441432
0.003411925
0.00341111
0.003411212
0.003411067
0.003411057
0.003441302
0.003411899
0.003411109
0.003411202
0.003411066
0.003411057
0.003720314
0.003741709
0.003740223
0.00374101
0.003740429
0.003441116
0.003411973
0.003411265
0.00341108
0.003411064
0.00341105
0.003442909
0.003411743
0.003411258
0.003411096
0.003411045
0.003411045
0.003444471
0.003412072
0.003411161
0.00341107
0.003411051
0.003411034
0.003441183
0.00341194
0.003411118
0.003411213
0.003411073
0.003411062
0.003444856
0.003411803
0.003411116
0.003411113
0.003411054
0.00341104
0.003442325
0.003411584
0.003411111
0.003411068
0.003411048
0.00341104
0.003442143
0.003411593
0.003411107
0.003411069
0.003411048
0.003411038
0.003442109
0.003411608
0.00341111
0.003411076
0.00341105
0.003411039
0.003442115
0.003411621
0.003411111
0.003411076
0.00341105
0.003411039
0.003442332
0.00341163
0.003411112
0.003411081
0.003411051
0.003411039
0.003442668
0.003411636
0.003411114
0.003411085
0.003411051
0.003411039
0.003443051
0.003411641
0.003411115
0.003411081
0.003411051
0.003411039
0.003443382
0.003411639
0.003411116
0.003411068
0.003411049
0.003411038
0.003443616
0.00341164
0.003411118
0.003411067
0.003411049
0.003411038
0.003443821
0.003411643
0.00341112
0.003411067
0.00341105
0.003411039
0.00344392
0.003411645
0.003411121
0.003411067
0.00341105
0.003411039
0.003443812
0.003411637
0.00341112
0.003411062
0.003411049
0.003411039
0.003443614
0.003411631
0.003411118
0.003411062
0.003411048
0.003411038
0.003443441
0.003411631
0.003411116
0.003411059
0.003411048
0.003411038
0.003443295
0.003411631
0.003411115
0.003411063
0.003411047
0.003411036
0.003443059
0.003411618
0.003411111
0.003411055
0.003411046
0.003411036
0.003442534
0.003411612
0.003411109
0.00341106
0.003411045
0.003411037
0.003448333
0.003411556
0.003411115
0.003411054
0.003411045
0.003411036
0.003720471
0.003741377
0.003740119
0.003740322
0.003740427
0.003441306
0.003411947
0.003411267
0.003411087
0.003411063
0.003411051
0.003442822
0.003411732
0.003411262
0.003411096
0.003411045
0.003411045
0.00344101
0.003412072
0.003411162
0.00341107
0.003411051
0.003411034
0.003442063
0.003411914
0.003411117
0.00341121
0.003411072
0.003411061
0.003441423
0.003411734
0.003411113
0.003411103
0.003411053
0.003411039
0.003441084
0.003411555
0.003411106
0.003411066
0.003411047
0.003411039
0.003440957
0.003411576
0.003411104
0.003411067
0.003411047
0.003411038
0.003440884
0.003411598
0.003411106
0.003411074
0.003411049
0.003411039
0.00344092
0.003411613
0.003411108
0.003411076
0.00341105
0.003411039
0.00344109
0.00341161
0.003411108
0.003411077
0.00341105
0.003411039
0.003441243
0.003411606
0.003411109
0.003411078
0.00341105
0.003411038
0.00344137
0.003411606
0.003411109
0.003411073
0.003411049
0.003411037
0.003441494
0.003411607
0.003411109
0.003411063
0.003411048
0.003411036
0.003441577
0.003411605
0.003411107
0.003411058
0.003411046
0.003411035
0.003441645
0.003411608
0.003411106
0.003411055
0.003411045
0.003411035
0.003441699
0.003411605
0.003411104
0.003411052
0.003411043
0.003411034
0.00344174
0.0034116
0.003411104
0.003411051
0.003411043
0.003411034
0.003441705
0.003411595
0.003411103
0.00341105
0.003411043
0.003411034
0.003441632
0.003411599
0.003411103
0.003411051
0.003411043
0.003411034
0.003441564
0.003411597
0.003411102
0.003411052
0.003411042
0.003411033
0.00344141
0.003411597
0.003411102
0.003411054
0.003411042
0.003411034
0.00344127
0.003411594
0.003411104
0.00341107
0.003411044
0.003411036
0.003441996
0.003411519
0.003411091
0.003411037
0.003411036
0.003411031
0.003721952
0.003741165
0.0037401
0.003740302
0.003740383
0.003439326
0.003412151
0.003411284
0.003411077
0.003411068
0.003411051
0.003442303
0.003411815
0.003411284
0.003411125
0.003411051
0.00341104
0.003444466
0.003412134
0.003411108
0.00341116
0.003411049
0.003411044
0.003448906
0.003412127
0.003411179
0.003411079
0.003411054
0.00341104
0.003443059
0.003412243
0.003411094
0.003411161
0.003411057
0.003411046
0.003440927
0.003412142
0.00341109
0.00341117
0.003411059
0.003411051
0.003440658
0.003412062
0.003411088
0.003411172
0.003411061
0.003411052
0.003440618
0.003411994
0.003411089
0.003411181
0.003411063
0.003411054
0.003440597
0.003411956
0.00341109
0.003411185
0.003411064
0.003411055
0.003440572
0.003411936
0.003411093
0.003411191
0.003411066
0.003411056
0.003440553
0.00341192
0.003411096
0.003411198
0.003411067
0.003411057
0.003440543
0.003411919
0.0034111
0.003411203
0.003411068
0.003411058
0.003440546
0.003411922
0.003411104
0.003411209
0.003411069
0.003411059
0.003440532
0.003411931
0.003411106
0.003411213
0.003411068
0.003411059
0.003440537
0.003411928
0.003411108
0.003411219
0.003411069
0.003411059
0.003440542
0.003411937
0.003411109
0.003411222
0.003411069
0.003411059
0.003440541
0.00341194
0.003411109
0.003411224
0.003411069
0.003411059
0.003440516
0.003411944
0.003411108
0.003411225
0.003411069
0.003411059
0.003440494
0.003411936
0.003411105
0.003411221
0.003411068
0.003411059
0.003440477
0.00341192
0.003411105
0.003411216
0.003411067
0.003411057
0.003440461
0.003411907
0.003411105
0.003411215
0.003411069
0.003411061
0.003440399
0.003411921
0.003411105
0.003411203
0.003411067
0.003411057
0.003440302
0.003411923
0.003411108
0.003411199
0.003411069
0.003411063
0.003722875
0.003741833
0.003739991
0.003740516
0.00374039
0.003441128
0.00341232
0.003411315
0.003411121
0.003411074
0.003411056
0.003445606
0.003412226
0.00341116
0.003411147
0.00341105
0.003411048
0.003447387
0.00341189
0.003411311
0.003411113
0.00341104
0.003411034
0.003443063
0.003411747
0.003411313
0.003411082
0.003411043
0.003411041
0.003441621
0.003411669
0.003411403
0.003411053
0.003411055
0.003411033
0.003441287
0.003411671
0.00341138
0.003411049
0.003411067
0.003411036
0.003441208
0.003411712
0.003411364
0.00341105
0.003411069
0.003411036
0.003441161
0.00341175
0.003411351
0.003411049
0.003411072
0.003411037
0.00344114
0.003411781
0.003411346
0.003411049
0.003411073
0.003411037
0.003441119
0.003411803
0.003411347
0.003411048
0.003411074
0.003411037
0.003441133
0.003411825
0.003411347
0.003411047
0.003411076
0.003411036
0.003441147
0.003411853
0.003411349
0.003411046
0.003411078
0.003411036
0.003441216
0.003411845
0.003411353
0.003411045
0.00341108
0.003411035
0.003441211
0.003411879
0.003411359
0.003411045
0.003411081
0.003411035
0.003441278
0.003411872
0.003411365
0.003411045
0.003411082
0.003411034
0.003441255
0.003411904
0.00341137
0.003411045
0.003411082
0.003411033
0.003441316
0.00341188
0.003411374
0.003411045
0.003411083
0.003411033
0.003441338
0.003411884
0.00341138
0.003411045
0.003411083
0.003411033
0.003441344
0.003411871
0.003411385
0.003411046
0.003411081
0.003411034
0.003441354
0.00341182
0.003411375
0.003411047
0.003411079
0.003411034
0.003441236
0.003411887
0.003411378
0.003411046
0.003411078
0.003411033
0.003441218
0.003411872
0.00341138
0.003411048
0.003411074
0.003411034
0.003441126
0.00341188
0.003411356
0.003411046
0.00341107
0.003411033
0.003723423
0.003741467
0.003739353
0.003740392
0.003739865
0.003455299
0.003413384
0.003411292
0.003411169
0.003411101
0.003411086
0.003449789
0.003412317
0.003411319
0.003411111
0.003411071
0.003411056
0.003442404
0.003412141
0.003411284
0.003411072
0.003411064
0.003411051
0.003441148
0.003412166
0.003411275
0.003411077
0.003411066
0.003411054
0.003441186
0.003412162
0.003411281
0.00341108
0.003411069
0.003411055
0.003441122
0.003412131
0.003411301
0.003411079
0.003411068
0.003411054
0.003441094
0.003412086
0.003411302
0.003411072
0.003411067
0.003411053
0.003441059
0.003412067
0.003411298
0.003411069
0.003411066
0.003411052
0.003441048
0.003412071
0.003411295
0.003411066
0.003411066
0.003411052
0.003441045
0.003412059
0.003411299
0.003411066
0.003411066
0.003411052
0.003441143
0.003412106
0.003411301
0.003411068
0.003411067
0.003411052
0.003441131
0.003412119
0.0034113
0.003411071
0.003411067
0.003411052
0.003441465
0.00341212
0.003411301
0.003411074
0.003411067
0.003411052
0.003441107
0.003412098
0.003411298
0.003411077
0.003411067
0.003411052
0.003441615
0.003412195
0.003411303
0.00341108
0.003411067
0.003411052
0.003441243
0.003412145
0.003411301
0.003411082
0.003411067
0.003411053
0.003441221
0.003412228
0.003411305
0.003411086
0.003411067
0.003411053
0.003440925
0.003412223
0.003411304
0.003411085
0.003411067
0.003411053
0.003441699
0.003412349
0.003411304
0.003411087
0.003411067
0.003411053
0.003441615
0.003412406
0.003411284
0.003411081
0.003411067
0.003411052
0.003440872
0.003412234
0.003411297
0.003411077
0.003411068
0.003411054
0.003440876
0.003412248
0.003411296
0.003411072
0.003411066
0.003411052
0.003440907
0.003412126
0.003411287
0.003411072
0.003411068
0.003411054
0.003751686
0.003772407
0.003769759
0.003771862
0.003770949
0.0035159
0.003416709
0.003415354
0.003414158
0.003414473
0.003414273
0.003500051
0.003417904
0.003414958
0.003413642
0.003414122
0.003413941
0.003498119
0.003418198
0.003415026
0.003413707
0.003414117
0.003413892
0.003497812
0.00341835
0.003415077
0.003413651
0.003414089
0.003413864
0.003497813
0.003418247
0.003415153
0.003413667
0.003414108
0.003413854
0.003497811
0.003418178
0.003415256
0.003413631
0.003414102
0.003413841
0.003497803
0.003418217
0.003415252
0.003413648
0.003414104
0.003413838
0.003497787
0.003418209
0.003415242
0.003413652
0.003414106
0.003413841
0.003497782
0.003418202
0.003415232
0.003413656
0.00341411
0.003413855
0.003497781
0.003418188
0.003415196
0.003413677
0.00341411
0.00341386
0.003497815
0.00341827
0.003415167
0.003413695
0.003414113
0.003413862
0.003497815
0.003418341
0.003415157
0.003413699
0.003414116
0.003413861
0.003497849
0.003418321
0.003415157
0.003413694
0.003414118
0.00341386
0.003497816
0.003418372
0.003415162
0.003413681
0.003414121
0.003413855
0.003497837
0.003418344
0.003415141
0.003413688
0.003414119
0.00341385
0.003497827
0.003418358
0.00341513
0.003413693
0.00341412
0.003413846
0.003497815
0.00341823
0.003415101
0.003413727
0.00341412
0.003413845
0.003497793
0.003418376
0.003415082
0.003413732
0.003414131
0.003413838
0.0034979
0.003418427
0.003415057
0.003413673
0.003414106
0.003413804
0.003548176
0.003418402
0.003415053
0.003413691
0.003414118
0.0034138
0.003509527
0.003418483
0.003415041
0.003413778
0.003414127
0.003413838
0.003558055
0.003418266
0.003415027
0.00341376
0.003414115
0.00341382
0.003562023
0.003418309
0.003415095
0.003413665
0.003414121
0.003413764
0.003743308
0.003748807
0.003504029
0.003419688
0.003736022
0.003740035
0.003515611
0.00342279
0.00357719
0.003430691
0.003735809
0.003735391
0.003499827
0.003431289
0.003571521
0.003435233
0.00373672
0.003734446
0.003498078
0.00343556
0.00356484
0.003435847
0.003735219
0.003734421
0.003497771
0.003437015
0.003564151
0.003436578
0.003735307
0.003734428
0.003497775
0.003437598
0.003564777
0.003437057
0.003735241
0.003734392
0.003497772
0.003437792
0.003564806
0.003437329
0.003735075
0.003734432
0.003497766
0.003437963
0.003563499
0.003437277
0.003734981
0.003734508
0.003497755
0.003437635
0.003562186
0.003436817
0.003735023
0.003734605
0.003497757
0.003437497
0.003561484
0.003437002
0.003735512
0.003734565
0.003497782
0.0034376
0.003562338
0.003436956
0.00373495
0.003734584
0.003497762
0.003437412
0.003561609
0.003436864
0.003735008
0.003734532
0.003497762
0.00343738
0.003560375
0.003436698
0.003734855
0.003734577
0.003497763
0.00343743
0.003560224
0.003436735
0.00373519
0.003734756
0.003497817
0.003437383
0.003562297
0.003437154
0.003734607
0.003734514
0.003497815
0.003437396
0.003562799
0.003436826
0.003735131
0.003734466
0.003497807
0.003437195
0.003560728
0.003436761
0.003734679
0.003734873
0.003497815
0.00343718
0.003557702
0.003436309
0.003734463
0.003734724
0.00349781
0.003436853
0.003559718
0.003436474
0.003734731
0.003734392
0.003497758
0.003436399
0.003560763
0.003436418
0.003734657
0.003735107
0.003498403
0.003436814
0.003505833
0.003434769
0.003733796
0.003734495
0.003547625
0.003437965
0.003506984
0.003435976
0.003733887
0.003735071
0.003553674
0.003438059
0.003504598
0.003437168
0.003734302
0.003423768
0.003541341
0.003438261
0.003498286
0.003436733
0.003729514
0.003513027
0.003421079
0.003734878
0.003582839
0.003429164
0.003732307
0.003503416
0.003426631
0.003733636
0.003578811
0.003426558
0.003726486
0.003499198
0.003426792
0.003730618
0.003509051
0.003426124
0.003724512
0.003559995
0.003428188
0.003728754
0.003505793
0.00342719
0.003725797
0.003568176
0.003429149
0.003728107
0.00349785
0.003427152
0.003729624
0.003564727
0.003426637
0.003727246
0.003497902
0.003426196
0.003733259
0.003578074
0.003426561
0.003732292
0.003502549
0.003425927
0.003734447
0.003582207
0.003428968
0.003729577
0.003513642
0.003421148
0.003749731
0.00350404
0.003419656
0.003743277
0.00376264
0.003412268
0.003412957
0.003745012
0.003748276
0.00376393
0.003412742
0.003412244
0.003754199
0.003748958
0.003766582
0.003412256
0.003412353
0.003752198
0.003749314
0.003765923
0.003412309
0.003412236
0.003752994
0.003749218
0.003412256
0.003752547
0.003422828
0.003576878
0.003430706
0.003736105
0.003739981
0.00343128
0.003571307
0.003435222
0.003735845
0.003735397
0.003435507
0.003564844
0.003435799
0.003736493
0.003734451
0.003437044
0.003564224
0.003436551
0.003735368
0.003734401
0.00343758
0.003565168
0.003437058
0.00373528
0.003734437
0.003437761
0.003564951
0.003437229
0.003735342
0.003734427
0.003437976
0.003563469
0.003437094
0.003735104
0.003734448
0.0034379
0.003561988
0.003436786
0.003735115
0.003734627
0.003437957
0.003561001
0.003436887
0.00373462
0.003734732
0.003437484
0.003563138
0.003436851
0.003734494
0.003734587
0.003436968
0.003560954
0.003436914
0.003735051
0.003734592
0.003437675
0.003559919
0.003436418
0.003734815
0.003734508
0.003437003
0.003558359
0.003436179
0.003734838
0.003734296
0.003435031
0.003498529
0.003436429
0.00373437
0.003735166
0.003435179
0.003500183
0.003434955
0.003735369
0.003735454
0.003435988
0.003498326
0.00343668
0.003734612
0.003418594
0.003442249
0.003746152
0.003745064
0.003748287
0.003751156
0.003762648
0.003412274
0.003412964
0.003754196
0.003748952
0.003772434
0.003764202
0.003412744
0.003412237
0.003752195
0.003749335
0.003769855
0.0037666
0.003412253
0.003412354
0.003753015
0.003749229
0.003771979
0.003765987
0.003412311
0.003412237
0.003752561
0.003771047
0.003412258
0.003433659
0.003718332
0.003427137
0.003728545
0.003434488
0.003712539
0.003435894
0.003728429
0.003436165
0.003713445
0.00343483
0.003726024
0.003437484
0.003711442
0.003435381
0.003725337
0.003438501
0.00371131
0.003435104
0.003724882
0.003438825
0.003710886
0.003435209
0.003724668
0.003438969
0.003710104
0.003435287
0.00372465
0.003438831
0.003709499
0.003435829
0.003724952
0.00343902
0.003708932
0.00343586
0.003724458
0.003439032
0.003728526
0.003435224
0.003724484
0.003438994
0.003708258
0.003436132
0.003724507
0.003438811
0.003715247
0.003436357
0.003724193
0.003438717
0.003707855
0.003436623
0.003723831
0.003439111
0.003727093
0.003435714
0.003723704
0.003438681
0.003719858
0.003435895
0.003724019
0.003439258
0.003727477
0.003435915
0.003723738
0.003438474
0.003715948
0.003435975
0.003723463
0.003439226
0.003726541
0.003435405
0.003723662
0.003439299
0.00372216
0.00343538
0.003722368
0.0034392
0.003725439
0.00343593
0.003722992
0.003438406
0.003715784
0.003436573
0.003721246
0.00343991
0.00372113
0.003436422
0.003721957
0.003437563
0.00371396
0.003437996
0.003722434
0.003449935
0.003438565
0.003452913
0.003461042
0.003479316
0.003473295
0.003480482
0.003468045
0.003480353
0.003469071
0.003483215
0.00347214
0.003475717
0.003469986
0.00345723
0.003452251
0.003434589
0.003453678
0.003438253
0.003561019
0.003436932
0.003735056
0.003734484
0.003437394
0.00355984
0.003436411
0.00373506
0.00373453
0.003437399
0.003561908
0.003437151
0.003734981
0.003734813
0.003437726
0.003560938
0.003437116
0.003734743
0.003735789
0.003435889
0.00355877
0.003435591
0.003734337
0.003735257
0.003436363
0.003536866
0.003433758
0.003733751
0.003734408
0.0034396
0.003556025
0.00343884
0.0037341
0.003734197
0.003429435
0.003768471
0.003423788
0.003738686
0.003425607
0.003719173
0.003440512
0.003722759
0.003432783
0.003453381
0.003433619
0.003729297
0.003430482
0.003717856
0.003434271
0.003726927
0.003435482
0.003710622
0.003435227
0.003725762
0.003436426
0.003712999
0.003435269
0.003725211
0.003437487
0.0037117
0.003435237
0.003724966
0.003438305
0.003711272
0.003435203
0.003724788
0.003438529
0.003710383
0.00343537
0.003725207
0.003438623
0.003709681
0.003435673
0.003724792
0.003438521
0.003709163
0.003435627
0.003726534
0.003439203
0.003708624
0.003435803
0.003724653
0.003438788
0.003708497
0.003435995
0.003724516
0.003438761
0.003708185
0.003436428
0.00372417
0.003438543
0.003707768
0.003436639
0.003725089
0.003439569
0.003707787
0.003436807
0.003724523
0.00343918
0.003707864
0.003436493
0.003725227
0.003439623
0.003706726
0.003436389
0.003723236
0.003439337
0.003719027
0.003436763
0.003724766
0.003439808
0.003706837
0.003436607
0.003723834
0.00343982
0.003711028
0.003436539
0.003723503
0.003439561
0.003706029
0.003437806
0.003719141
0.003438499
0.003719381
0.003439146
0.003718931
0.00343786
0.003706626
0.003437514
0.00371946
0.00343838
0.003714304
0.003439425
0.003462627
0.003708817
0.003436033
0.003457068
0.003453465
0.003470365
0.003466657
0.003483106
0.003475074
0.003471016
0.003473353
0.003477635
0.003480168
0.003470705
0.00347726
0.003456236
0.003464121
0.003448933
0.003435846
0.003440979
0.00375142
0.003428903
0.003768451
0.003423651
0.003741834
0.003426285
0.003719112
0.003440712
0.003721124
0.003417581
0.003778379
0.003417297
0.003768561
0.003416757
0.003772552
0.003416945
0.003775084
0.003417142
0.003785102
0.00341645
0.003775114
0.00341694
0.003774803
0.003416132
0.003782122
0.003417085
0.003784868
0.003416405
0.003774701
0.003416631
0.003775483
0.003416007
0.003781832
0.003417135
0.003786076
0.003416434
0.003775544
0.003416874
0.003775358
0.003415987
0.003782575
0.003417102
0.00378555
0.00341643
0.003775218
0.003416706
0.003782286
0.003433692
0.003718572
0.003427253
0.003728514
0.003433744
0.003729311
0.00343044
0.003717916
0.003434315
0.003712792
0.003435862
0.003728473
0.003434236
0.003727299
0.003435616
0.003710895
0.003436032
0.003713627
0.003434909
0.003726168
0.003435174
0.00372587
0.003436388
0.003713076
0.003437494
0.003711739
0.003435326
0.003725376
0.003435248
0.003725243
0.003437633
0.003711821
0.00343841
0.003711483
0.00343499
0.003725085
0.003435224
0.003725054
0.003438318
0.003711348
0.00343874
0.003711195
0.003435188
0.003724876
0.003435195
0.003724644
0.003438515
0.003710483
0.003438968
0.003710388
0.00343512
0.003724713
0.003435339
0.003724652
0.00343863
0.003709777
0.003439056
0.003709857
0.003435522
0.003724685
0.003435499
0.003724146
0.00343889
0.003709221
0.003438459
0.003709175
0.003435597
0.003725122
0.0034363
0.003724543
0.003439372
0.003709854
0.003438985
0.003721189
0.003435685
0.003724549
0.003436214
0.003724122
0.00343906
0.003707769
0.00343754
0.003707761
0.00343616
0.003712629
0.003437865
0.003725364
0.003439265
0.003719729
0.00343919
0.003721992
0.003435706
0.003723694
0.003436729
0.003724412
0.003440238
0.00370716
0.003439319
0.003728056
0.003435762
0.003722898
0.003436824
0.003722012
0.003438778
0.003707302
0.003440094
0.003705053
0.003436827
0.003720013
0.003437556
0.003719669
0.003436435
0.003705523
0.003435841
0.003705203
0.003439794
0.00371808
0.003435763
0.003709754
0.003439944
0.003705708
0.003438823
0.003743759
0.003722031
0.003436631
0.003571897
0.003423991
0.003554628
0.003436027
0.003453893
0.003437204
0.003439015
0.003418866
0.003704101
0.003752953
0.003590639
0.003696622
0.003577043
0.003726951
0.003612411
0.003693961
0.003598128
0.003726096
0.003616322
0.003692465
0.003602449
0.003725052
0.003617967
0.003691701
0.00360341
0.003722948
0.003619682
0.00369119
0.003604195
0.003721778
0.00361939
0.003690875
0.003604632
0.003719388
0.003619051
0.003690711
0.003604872
0.003718513
0.003613791
0.003690497
0.00360515
0.003714888
0.003616718
0.003690661
0.003604841
0.003716561
0.003609469
0.003708017
0.003608096
0.003711948
0.003618471
0.003690752
0.003604906
0.003717874
0.003612901
0.003693599
0.003605687
0.003714224
0.003617634
0.003690939
0.003604946
0.003716781
0.003612981
0.003711822
0.003607444
0.003713524
0.003614759
0.003700447
0.003604298
0.003715117
0.003607776
0.0037126
0.00361058
0.003711189
0.003616615
0.003699124
0.003603126
0.003715468
0.00360882
0.003716607
0.003608273
0.003710023
0.003617881
0.003708929
0.003602983
0.003715456
0.003608499
0.003717089
0.003607799
0.003709164
0.003618144
0.003704684
0.00360045
0.003716678
0.003609174
0.003714523
0.003603058
0.003713116
0.003615252
0.003701251
0.003600822
0.003715995
0.003730307
0.003754948
0.003753893
0.003735614
0.003752141
0.003759379
0.003748803
0.003765991
0.003754997
0.003733588
0.003762868
0.003748869
0.003749945
0.003729314
0.003731362
0.003756266
0.003746993
0.00375838
0.0035881
0.003731118
0.003595291
0.003712052
0.003757473
0.003732843
0.003595238
0.003725801
0.003603818
0.003694535
0.003599521
0.003725923
0.003613038
0.003692904
0.00360097
0.003725855
0.003616982
0.003691783
0.003601365
0.003724851
0.003620441
0.003691282
0.003601794
0.003724307
0.003621906
0.00369091
0.003601987
0.003723561
0.003622731
0.003690713
0.003602556
0.003722934
0.003622527
0.003690531
0.003602541
0.003723316
0.003623063
0.003690459
0.003602215
0.003724189
0.00361605
0.003690631
0.003602345
0.00372251
0.003622988
0.003690365
0.003603102
0.003722619
0.003620415
0.003690269
0.00360279
0.003722225
0.003623113
0.003690176
0.003601528
0.00372373
0.003618496
0.003690376
0.003602456
0.003723141
0.003619984
0.003690157
0.003601681
0.003722959
0.003617228
0.003690356
0.003602552
0.003722788
0.00361977
0.003690114
0.003600009
0.00372376
0.003620779
0.003690242
0.003602041
0.003722913
0.003618875
0.003690075
0.003600373
0.003722876
0.003620639
0.003690292
0.003602155
0.003721939
0.003617091
0.003690106
0.00360265
0.003721568
0.003622206
0.003689905
0.003606644
0.003721198
0.003620705
0.003689455
0.00362209
0.003722396
0.003601601
0.003694697
0.003729826
0.003748337
0.003746162
0.003729832
0.003730202
0.003756756
0.003744268
0.003748185
0.003751156
0.003730231
0.003728691
0.003754397
0.003760377
0.003732071
0.003729432
0.003748326
0.003703936
0.003753657
0.003588879
0.003731241
0.003594887
0.003712354
0.003749818
0.003753311
0.003753017
0.00375153
0.003750139
0.003753577
0.003753077
0.003751929
0.003754796
0.00375678
0.003755594
0.00375703
0.003590772
0.003696983
0.003727037
0.003577072
0.003595176
0.003725838
0.003603647
0.003694601
0.003619509
0.003691347
0.003721797
0.003604005
0.00360171
0.003724378
0.003621382
0.003690983
0.003618925
0.003691006
0.003718989
0.003604485
0.003601913
0.003724096
0.003622116
0.003690772
0.003619488
0.003690921
0.003719271
0.003604697
0.003602168
0.003723114
0.003622491
0.003690597
0.003614944
0.003701911
0.003715994
0.003604035
0.00360247
0.003722342
0.003623591
0.003690171
0.00361473
0.003690262
0.003604274
0.003719601
0.003602311
0.003720673
0.003622615
0.003690067
0.003622562
0.003693607