/*--------------------------------*- C++ -*----------------------------------*\
  =========                 |
  \\      /  F ield         | OpenFOAM: The Open Source CFD Toolbox
   \\    /   O peration     | Website:  https://openfoam.org
    \\  /    A nd           | Version:  7
     \\/     M anipulation  |
\*---------------------------------------------------------------------------*/
FoamFile
{
    version     2.0;
    format      ascii;
    class       volVectorField;
    location    "0.1";
    object      U;
}
// * * * * * * * * * * * * * * * * * * * * * * * * * * * * * * * * * * * * * //

dimensions      [0 1 -1 0 0 0 0];

internalField   nonuniform List<vector> 
105056
(
(0.4803051 0.02236214 0.005401321)
(0.4943816 0.008268705 -0.002718933)
(0.4887243 0.0097364 -0.002896794)
(0.492877 0.01130377 -0.002458271)
(0.4936894 0.01094582 -0.002351567)
(0.4684863 0.00550055 0.003166167)
(0.5053267 -0.0008022759 -0.006657923)
(0.4960823 -0.002319064 -0.006043217)
(0.5089664 0.0007530105 -0.005095542)
(0.5032547 0.001182946 -0.005187833)
(0.4526029 -0.005378568 0.003401623)
(0.5064011 -0.001550485 -0.007234338)
(0.4982566 -0.001984253 -0.005955517)
(0.5106243 -5.181495e-05 -0.00521934)
(0.5034826 -6.834684e-05 -0.00550498)
(0.4468971 -0.008129977 0.004148973)
(0.5060465 -0.001495591 -0.007007087)
(0.497743 -0.001465658 -0.007718471)
(0.510001 -0.000566843 -0.005003608)
(0.5041632 -0.0005022747 -0.006144687)
(0.4468206 -0.007067056 0.003233555)
(0.5083565 -0.0006480489 -0.007143631)
(0.49818 -0.001243287 -0.007093392)
(0.5087757 -0.0002758083 -0.004453497)
(0.5039548 -0.0001695477 -0.006039091)
(0.4505169 -0.004228576 0.002422825)
(0.5138011 -0.0004428424 -0.007764713)
(0.4985927 -0.001234353 -0.006777763)
(0.5081858 -0.000489259 -0.00413642)
(0.5038341 -0.0003198198 -0.005976093)
(0.4499107 -0.001031618 0.003299529)
(0.5137816 -0.0002051358 -0.008466448)
(0.4990411 -0.001171599 -0.006696874)
(0.5077598 -0.0005939291 -0.004110931)
(0.5037051 -0.000575401 -0.005589392)
(0.4515833 0.000174723 0.003549372)
(0.5134325 0.0001191572 -0.008891769)
(0.4991753 -0.001203587 -0.006564816)
(0.5099505 -0.0005747029 -0.004757412)
(0.5038371 -0.0007296988 -0.00505176)
(0.4531017 0.001286718 0.003923546)
(0.5084703 -2.090956e-05 -0.007335757)
(0.4992205 -0.001023339 -0.006522712)
(0.5112421 -0.0006057861 -0.0053917)
(0.5040221 -0.0006826153 -0.00477482)
(0.453336 0.001390903 0.004100678)
(0.5081959 -6.198936e-05 -0.007361751)
(0.4992703 -0.0008325708 -0.006373637)
(0.5117194 -0.000547035 -0.005351267)
(0.5041718 -0.0005958575 -0.004770741)
(0.4533614 0.0002286901 0.003768737)
(0.5082893 -8.06524e-05 -0.007306412)
(0.4994727 -0.0006228351 -0.006394942)
(0.5117169 -0.0004852768 -0.00517373)
(0.5042853 -0.0005494435 -0.00483685)
(0.453269 0.0004763972 0.003918966)
(0.508474 -7.061156e-05 -0.007218541)
(0.4996255 -0.0005723651 -0.006370157)
(0.5119158 -0.000472357 -0.005036753)
(0.5043242 -0.0004883756 -0.004782306)
(0.4526677 0.001229291 0.003490663)
(0.5085966 -6.675731e-05 -0.007291381)
(0.4998532 -0.0005744277 -0.006394255)
(0.5118216 -0.0004940313 -0.00499263)
(0.5042667 -0.0004230363 -0.004548377)
(0.4526284 0.0001984427 0.003341737)
(0.5088616 -5.544654e-05 -0.007315848)
(0.5000555 -0.0005006327 -0.006257129)
(0.5122371 -0.0004077046 -0.005195487)
(0.504242 -0.0003660574 -0.004416935)
(0.451167 -0.002648798 0.004362698)
(0.5087508 -0.0001442947 -0.007181154)
(0.5000537 -0.0001372783 -0.006118912)
(0.512198 -0.0001894948 -0.005361725)
(0.5042162 -0.0003108714 -0.004285079)
(0.454138 0.0005553236 0.003520482)
(0.5094719 -0.0001502656 -0.007424251)
(0.500321 4.824821e-05 -0.006007834)
(0.5121965 -0.0001367167 -0.005255717)
(0.5041709 -0.0002495687 -0.004223904)
(0.4544645 -0.001318204 0.003317737)
(0.5155495 0.0001285211 -0.009306063)
(0.5025257 0.002369821 -0.008489364)
(0.5102026 -0.0004801035 -0.004480777)
(0.5039991 -0.0002464867 -0.004273773)
(0.45222 5.502747e-05 0.002641526)
(0.5168637 0.0001607553 -0.010051)
(0.5029344 0.0009534348 -0.007557042)
(0.5050541 -0.0002477233 -0.003774754)
(0.5037923 -0.0001980941 -0.004281899)
(0.4523756 -0.000218478 0.002908016)
(0.5208866 0.0003660852 -0.01228624)
(0.5034329 0.001559047 -0.007274069)
(0.5048197 -0.0001856906 -0.00379052)
(0.5037521 -0.0002419258 -0.004194318)
(0.4481254 -0.002060186 0.004701558)
(0.5254779 -0.0003453632 -0.01078572)
(0.5050907 0.001924078 -0.005991416)
(0.5042193 -0.0001304293 -0.003773763)
(0.5036652 -0.0002181876 -0.003987862)
(0.448454 0.0001157699 0.002610599)
(0.5245952 -0.0001829979 -0.0128154)
(0.5052266 -0.0009673864 -0.006270218)
(0.504189 -0.0001837712 -0.003738205)
(0.5036362 -0.0001712761 -0.003811521)
(0.4482718 0.0001315072 0.00332734)
(0.5214601 -0.0002770287 -0.01243353)
(0.5038667 -0.0007432342 -0.006501608)
(0.5041353 -0.0001262724 -0.003755537)
(0.5035746 -9.962986e-05 -0.003643129)
(0.4642855 0.004998007 0.01323342)
(0.5180249 1.123484e-05 -0.01184207)
(0.5022622 0.0001942148 -0.006679816)
(0.5040724 -6.229611e-05 -0.003700828)
(0.5035056 -8.281932e-05 -0.003655141)
(0.4741382 0.008494974 0.01661294)
(0.493097 -0.003624901 0.009978565)
(0.4893863 -0.003457172 0.01224171)
(0.4931151 -0.002045207 0.01128028)
(0.4942017 -0.002132031 0.01018396)
(0.4696026 -0.03560446 -0.03297402)
(0.4536426 -0.02011572 -0.01929709)
(0.5060589 0.03494406 0.03278692)
(0.4736507 -0.008101464 -0.007523906)
(0.4986265 0.007475085 0.007521784)
(0.4915405 -0.000603722 0.0001206488)
(0.505034 -0.00734142 -0.1034619)
(0.4354007 -0.02539544 -0.03417422)
(0.5182869 0.01658713 0.03832946)
(0.4699639 -0.005747224 -0.0153748)
(0.5036149 0.00239274 0.005048909)
(0.4903927 -0.0003873344 -0.004829125)
(0.5193928 0.007994501 -0.1064376)
(0.4251357 -0.01317237 -0.04437051)
(0.5123617 0.01024614 0.03870234)
(0.4643356 -0.003410398 -0.01751208)
(0.4974598 6.009065e-05 0.004658532)
(0.4879597 -0.0002046711 -0.0008595334)
(0.517379 0.007094178 -0.1349688)
(0.4180745 -0.007418778 -0.05254339)
(0.5127256 0.004846032 0.03836388)
(0.4650254 -0.001516666 -0.01665388)
(0.4991011 -0.0008304673 0.005170819)
(0.487656 -0.001848185 -0.004330027)
(0.5205608 0.004911923 -0.150254)
(0.4116371 -0.00278683 -0.05068921)
(0.5114067 0.002573241 0.03630038)
(0.4631536 0.0005284321 -0.01635265)
(0.5009827 -0.0004555034 0.007941582)
(0.4880442 -0.001181377 -0.002487518)
(0.5220785 0.004400282 -0.1604345)
(0.4067169 -0.0002445428 -0.04625027)
(0.5069376 0.0004686575 0.0288561)
(0.4617158 0.0007124372 -0.01542322)
(0.5007304 -0.0005795676 0.008358943)
(0.4877408 -0.001011811 -0.003055365)
(0.5226792 0.005334976 -0.1679057)
(0.4041317 0.0008965993 -0.04366983)
(0.5042037 -0.0002411961 0.02449522)
(0.4603911 0.0004365814 -0.01532648)
(0.5002485 -0.0002275336 0.008463892)
(0.4874399 -0.0005758554 -0.003003644)
(0.5228917 0.006153178 -0.1727881)
(0.4030992 0.001167729 -0.04225061)
(0.502255 -0.0003159028 0.02183285)
(0.4596308 0.0001535341 -0.01551207)
(0.4991431 -0.0002930364 0.007591877)
(0.4867748 -0.0005043415 -0.003082637)
(0.5229187 0.006243076 -0.1748572)
(0.4028657 0.001069386 -0.04230171)
(0.5019603 -0.0003802903 0.02303026)
(0.4596795 -4.557281e-05 -0.01598013)
(0.4984016 -0.0003306291 0.006949589)
(0.4865847 -0.0005886139 -0.00311744)
(0.5232876 0.006259718 -0.1735475)
(0.4028374 0.0008872461 -0.04206856)
(0.5015249 -0.0003275506 0.02318561)
(0.459481 5.912747e-05 -0.0163811)
(0.4983266 -0.0003218628 0.007033009)
(0.4865742 -0.0006975075 -0.003127537)
(0.5230992 0.006526799 -0.1742192)
(0.4034147 0.0006748654 -0.04260389)
(0.5009439 -0.0002386713 0.02277385)
(0.45933 8.939964e-05 -0.01668593)
(0.4983758 -0.0003151014 0.007227358)
(0.4865949 -0.0006963993 -0.003076744)
(0.5231636 0.006052875 -0.1726484)
(0.4037911 0.00051084 -0.04318561)
(0.5006299 -0.0001688194 0.02267243)
(0.459441 -4.349742e-05 -0.01681397)
(0.4987203 -0.000329913 0.007778698)
(0.4866807 -0.0006208715 -0.003026256)
(0.5229543 0.00488362 -0.1668198)
(0.403571 -1.562304e-05 -0.0443579)
(0.500215 -0.0002904235 0.02227471)
(0.4599623 -0.000369139 -0.01678547)
(0.4990131 -0.00032253 0.008243364)
(0.4867019 -0.0004675296 -0.002807327)
(0.5238209 0.002428823 -0.1480962)
(0.4068331 -0.0006773994 -0.04654776)
(0.5006152 -5.868201e-05 0.02315052)
(0.4608153 -0.0002314017 -0.01688384)
(0.4995094 -0.0002481466 0.008948813)
(0.4868156 -0.0002805974 -0.002726416)
(0.5235914 0.005779694 -0.1310257)
(0.4026854 0.0001831794 -0.04355358)
(0.4995681 -5.143114e-05 0.02044928)
(0.4601609 -0.0001936468 -0.01705625)
(0.4993355 -0.0001862011 0.008766369)
(0.4868583 -0.0001269709 -0.002499821)
(0.5225401 0.00544662 -0.1452145)
(0.406505 0.0002358696 -0.04831062)
(0.4996986 -0.000273687 0.02108285)
(0.4606538 -0.0004400288 -0.01710131)
(0.4994449 -0.0002383637 0.008885668)
(0.4870067 -0.0001722193 -0.002423651)
(0.5234878 0.002510162 -0.1162021)
(0.4053845 -0.0002375802 -0.04562639)
(0.5000319 -0.0002514042 0.02170005)
(0.4613729 -0.0006211884 -0.01725827)
(0.5001663 -0.0002431383 0.009518709)
(0.4874397 -0.0001372751 -0.002235417)
(0.5229986 0.005239303 -0.1127804)
(0.4060285 -2.406673e-05 -0.04604259)
(0.4998622 -0.0002677555 0.02128128)
(0.4617431 -0.0005029635 -0.01747649)
(0.5002893 -0.0001306445 0.009522559)
(0.4876733 -4.739305e-05 -0.002357257)
(0.5222165 0.004849597 -0.1181415)
(0.4052063 0.0008514128 -0.04519473)
(0.5000052 -0.0005445574 0.02148227)
(0.4619051 -0.0006596995 -0.01762529)
(0.5001583 -0.0001022273 0.009261476)
(0.4878942 -0.0002473619 -0.00227087)
(0.5236076 0.005409258 -0.109545)
(0.4089979 0.001461908 -0.04651953)
(0.5019138 -0.0005388073 0.02570741)
(0.4632662 -0.0003822187 -0.01759087)
(0.5010032 -4.527911e-05 0.009835095)
(0.4882818 -0.0001148219 -0.002411194)
(0.5167513 0.00625754 -0.117509)
(0.4105243 0.000792956 -0.04622764)
(0.5009108 -0.0001142134 0.02431365)
(0.4629721 -2.088252e-05 -0.0172879)
(0.4998577 0.0001894123 0.008639621)
(0.4883327 6.385772e-05 -0.00233159)
(0.5153031 0.002923684 -0.1198)
(0.4120368 0.0007233666 -0.04660568)
(0.501585 -1.093476e-05 0.02585003)
(0.4624124 0.0001958608 -0.01768717)
(0.4999251 0.0002454951 0.008981701)
(0.4878993 0.0001492771 -0.002656715)
(0.5231264 -0.005501282 -0.1667044)
(0.4113665 0.0008095895 -0.049697)
(0.5009391 -0.000334526 0.02406464)
(0.4616602 8.116628e-05 -0.01779334)
(0.4989208 9.620497e-06 0.008194426)
(0.4876555 -8.797747e-05 -0.002717148)
(0.4665031 0.006626724 0.008712428)
(0.506046 -0.007817204 0.0004540187)
(0.4983849 -0.007124945 -0.001799612)
(0.5093979 -0.004523717 0.0005797158)
(0.5033671 -0.00514783 0.0008192428)
(0.5035871 -0.1051078 -0.01040682)
(0.4317281 -0.03165729 -0.02229583)
(0.5150745 0.03882251 0.01413867)
(0.4689592 -0.01473225 -0.005785848)
(0.5022403 0.005392241 0.002384819)
(0.490255 -0.004210965 0.0001180902)
(0.2715899 -0.006593834 -0.005487617)
(0.4450936 -0.02311928 -0.01923479)
(0.5416437 0.01176965 0.01012703)
(0.490186 -0.0118131 -0.009460119)
(0.5149026 -0.0007493227 -0.001316328)
(0.4973838 -0.001905208 -0.001658078)
(0.4380916 0.007008638 -0.02953706)
(0.4254604 -0.02459561 -0.019416)
(0.5353948 0.01675482 0.00384062)
(0.4780019 -0.004108635 -0.01501297)
(0.5053986 0.002371769 -0.004089726)
(0.4896041 -0.0004969644 -0.003606219)
(0.4848028 0.00482811 -0.02366865)
(0.416035 -0.009642578 -0.03004137)
(0.5324348 0.0061151 -0.001344106)
(0.4752928 -0.002510395 -0.01873004)
(0.5116774 0.0001538945 -0.003656531)
(0.495546 -0.001043285 -0.002453217)
(0.474919 0.00294693 -0.05094173)
(0.4083995 -0.001945819 -0.02928212)
(0.5260324 0.007449469 -0.004619461)
(0.4646257 7.797112e-05 -0.02069903)
(0.506379 0.001461228 -0.005227554)
(0.4885164 0.001309329 -0.003924039)
(0.4720098 0.0004508223 -0.07211919)
(0.4051125 0.001581889 -0.02410304)
(0.5261056 0.006327572 -0.007084626)
(0.4623351 0.0006301224 -0.02232634)
(0.5047424 -0.0007253097 -0.006313658)
(0.4915188 -0.0004552338 -0.003823798)
(0.4702903 0.001009897 -0.08902943)
(0.4046412 0.002144352 -0.02004762)
(0.5271259 0.003112834 -0.00656274)
(0.4617084 0.0003791191 -0.02308248)
(0.505289 -0.0005619801 -0.006950311)
(0.4904283 -0.0002289623 -0.004516504)
(0.4696975 0.001437975 -0.09687314)
(0.4064716 0.002047678 -0.01645301)
(0.5270862 0.001275935 -0.006284851)
(0.4614725 0.0001908731 -0.02378395)
(0.5043955 -0.0005437022 -0.007400005)
(0.4908623 -0.0003692395 -0.004767789)
(0.4688758 0.001288844 -0.1011447)
(0.4060202 0.001457925 -0.0142178)
(0.5272246 2.716439e-05 -0.00546606)
(0.4615171 -8.748993e-05 -0.02404194)
(0.5043087 -0.0004516193 -0.007677529)
(0.4904007 -0.0002427168 -0.005290369)
(0.4680864 0.0009998599 -0.1041179)
(0.4051868 0.0009659375 -0.01254467)
(0.5273538 -0.0004803372 -0.00501683)
(0.4612655 -0.0001903983 -0.02437599)
(0.5043446 -0.0002766285 -0.007998998)
(0.4904223 -0.0001075372 -0.005565175)
(0.4679603 0.00102217 -0.1025843)
(0.4044217 0.0003905746 -0.01129705)
(0.5269608 -0.0005524424 -0.00510962)
(0.4607352 -0.0001707091 -0.02461722)
(0.5040917 -0.0001361924 -0.008218794)
(0.4900415 2.75297e-05 -0.005897662)
(0.4681019 0.0009789045 -0.09999232)
(0.4023584 -0.0001087673 -0.01049714)
(0.5265568 -0.0005829418 -0.005391509)
(0.4604137 -4.202265e-05 -0.02471284)
(0.5039669 1.368183e-05 -0.008301967)
(0.4901665 0.0001635569 -0.005968083)
(0.4681201 0.00121028 -0.0987839)
(0.4003838 -0.0005118673 -0.01028537)
(0.5258285 -0.0007471049 -0.005768036)
(0.4594291 -5.401369e-05 -0.02514503)
(0.503757 0.0001352237 -0.00826428)
(0.4894487 0.0001924248 -0.006346809)
(0.4683634 0.0007759301 -0.1070109)
(0.400018 -0.0007954611 -0.009490571)
(0.5252809 -0.0004211153 -0.005797045)
(0.4593319 -4.338688e-05 -0.02558068)
(0.5036644 0.0001944281 -0.007998747)
(0.4898925 0.0001155985 -0.006119805)
(0.4669193 0.0009749012 -0.1125574)
(0.397667 -0.0003213704 -0.008641362)
(0.5252685 -0.0004404191 -0.007103003)
(0.4583496 7.736938e-05 -0.02631123)
(0.5034822 0.0002980585 -0.007986877)
(0.4895796 6.838842e-05 -0.006252758)
(0.4685093 0.0006347059 -0.0940081)
(0.39815 -0.0002832825 -0.009140589)
(0.5241631 -0.0007309806 -0.007240867)
(0.4579912 0.0001310326 -0.02668983)
(0.5030808 0.0001333495 -0.007875296)
(0.4896871 2.454447e-05 -0.00619112)
(0.4648332 -0.0005096033 -0.1090854)
(0.3951379 -0.0002338399 -0.009042197)
(0.5240224 -0.0006475869 -0.007484438)
(0.4574026 1.476956e-05 -0.02681155)
(0.5028588 -0.0001095201 -0.00784055)
(0.4892755 -1.778757e-05 -0.006296651)
(0.4631534 -0.000643764 -0.1090355)
(0.3959589 0.000311748 -0.008898646)
(0.5239555 -0.0006567403 -0.007544458)
(0.4580125 -9.199712e-05 -0.02640935)
(0.5030865 -6.901765e-05 -0.00765)
(0.4897393 -8.184906e-05 -0.006078332)
(0.4622973 -0.00130059 -0.1056398)
(0.3959369 0.0005557695 -0.008801224)
(0.5242659 -0.001243124 -0.007082358)
(0.4576934 -0.000238251 -0.02619855)
(0.5032061 -0.0004857183 -0.007507799)
(0.4886576 -0.0001912017 -0.00622806)
(0.4597839 -0.001363351 -0.1157478)
(0.3970099 0.0009988711 -0.009438378)
(0.5241699 -0.0009673689 -0.005468233)
(0.4595887 -0.0001043642 -0.02531562)
(0.5040204 -0.0003564636 -0.007188314)
(0.4900009 -0.0001138724 -0.005890467)
(0.4571866 -0.000881923 -0.1203368)
(0.3987424 0.0003479104 -0.009399471)
(0.5246464 -0.0001411494 -0.005142845)
(0.4594015 -8.17474e-05 -0.02498423)
(0.5039429 -0.0003566052 -0.007456688)
(0.488759 -0.0001312012 -0.006117972)
(0.4560149 -0.004897707 -0.1086873)
(0.3985993 -3.485716e-05 -0.009899908)
(0.5255641 0.0001012171 -0.004142527)
(0.461342 -0.0002060538 -0.02424962)
(0.503694 -0.000452053 -0.007824621)
(0.4898657 -6.580043e-05 -0.005977717)
(0.4594639 -0.008858608 -0.06191842)
(0.401093 0.00115511 -0.009762497)
(0.5266884 -0.000528829 -0.003385818)
(0.4621843 -0.0001834955 -0.02365771)
(0.5042023 -0.0003394576 -0.00729284)
(0.4894792 -0.0002919676 -0.005909418)
(0.4565222 8.2664e-05 -0.004821626)
(0.5252296 -0.01088449 0.00663934)
(0.5039581 -0.008789783 -0.002893128)
(0.5153243 -0.007195805 0.0005838551)
(0.5049866 -0.005468597 -0.0002635003)
(0.5218953 -0.09588632 0.003485901)
(0.4224913 -0.04450568 -0.01210729)
(0.5072715 0.03605528 0.008225656)
(0.4627715 -0.01637091 -0.004049662)
(0.4971553 0.00482565 0.0009926046)
(0.4876692 -0.002439389 0.0006392555)
(0.4043496 -0.02901863 0.00332675)
(0.428264 -0.0236481 -0.02397622)
(0.5363782 0.004281045 0.01452084)
(0.4786126 -0.01665188 -0.003784062)
(0.51084 -0.00474257 0.003779189)
(0.4912969 -0.004228431 -0.0006902923)
(0.2386757 -0.00476169 -0.004136704)
(0.4619832 -0.02326067 -0.01908166)
(0.5529302 0.008520716 0.006355839)
(0.4858019 -0.01049271 -0.009333188)
(0.5100692 0.0002683915 0.0006140986)
(0.4926203 -0.0005573164 0.0001348449)
(0.3204422 0.002371132 -0.01860145)
(0.4405776 -0.01261771 -0.01054537)
(0.5468486 0.003676142 -0.001635011)
(0.4745581 -0.004542457 -0.01288571)
(0.5046203 -0.002601034 -0.005047263)
(0.4898459 -0.002131687 -0.004009766)
(0.3989813 0.001065242 -0.03413207)
(0.458744 0.001640174 -0.01217114)
(0.5498209 0.001732238 -0.005312177)
(0.4820751 -0.002939322 -0.01457129)
(0.5064592 -0.001964683 -0.005414498)
(0.4925786 -0.002053091 -0.002909894)
(0.4457698 -0.0004917904 -0.06162719)
(0.4669703 0.003127166 -0.00838633)
(0.556653 0.0007620617 -0.005582235)
(0.4863187 -0.001176813 -0.01270737)
(0.5120062 -0.001990235 -0.00648272)
(0.4956351 -0.002255377 -0.002977689)
(0.453377 0.006598992 -0.07260898)
(0.4681975 0.002570511 -0.007955734)
(0.5575977 0.0002559146 -0.00647607)
(0.4900355 -0.001129614 -0.01151746)
(0.5141155 -0.001968701 -0.007572677)
(0.4957625 -0.001407573 -0.003245744)
(0.4557494 0.008497271 -0.07649626)
(0.4692954 0.002452412 -0.00577501)
(0.5594139 -0.0005282974 -0.007924)
(0.4903849 -0.001048674 -0.01193875)
(0.5153647 -0.001722296 -0.008683495)
(0.4967384 -0.001355259 -0.003632806)
(0.4571634 0.005799451 -0.07641113)
(0.4697048 0.001686665 -0.00586082)
(0.5598155 -0.0006697422 -0.008630148)
(0.4911595 -0.0009202386 -0.01184932)
(0.5156681 -0.001597093 -0.009114621)
(0.4966845 -0.001165692 -0.003925193)
(0.4579137 0.003866927 -0.07326477)
(0.4696935 0.001062278 -0.005655011)
(0.5606874 -0.0008821353 -0.009976868)
(0.4917058 -0.000908909 -0.01213105)
(0.516524 -0.001399796 -0.009516875)
(0.4966982 -0.001137692 -0.004153104)
(0.4583791 0.001448118 -0.06808754)
(0.4698598 0.0006136954 -0.005628836)
(0.5617488 -0.001306655 -0.01141052)
(0.4915591 -0.0008753051 -0.01260235)
(0.5173428 -0.001139873 -0.009637976)
(0.496664 -0.001016763 -0.004295228)
(0.4562047 -0.0007160009 -0.06358439)
(0.4705396 0.0003394281 -0.005829588)
(0.5629038 -0.001668226 -0.01301758)
(0.4913407 -0.0008718562 -0.01286154)
(0.5182276 -0.0009306217 -0.009574076)
(0.496679 -0.0007539489 -0.004405167)
(0.4511941 -0.001612081 -0.06074555)
(0.4721684 -0.0001587219 -0.005619051)
(0.5641808 -0.001959581 -0.01474543)
(0.4919329 -0.0009128327 -0.01300688)
(0.5196358 -0.0006323777 -0.009689241)
(0.4973447 -0.0002009788 -0.003949877)
(0.4469356 -0.0004979669 -0.0624818)
(0.4716934 -3.297074e-05 -0.005530067)
(0.5651919 -0.001842213 -0.01568574)
(0.4908322 -0.0009638185 -0.01355627)
(0.5193149 -0.0005369062 -0.009416121)
(0.4968772 1.711874e-06 -0.004127401)
(0.4438105 -0.0007574407 -0.06354736)
(0.4726502 0.0003200995 -0.004578923)
(0.5669756 -0.001620698 -0.01691204)
(0.4906486 -0.000776556 -0.01417041)
(0.5202308 -0.0003989044 -0.009679855)
(0.4969719 0.000131559 -0.003849068)
(0.4406136 -0.000903052 -0.06174897)
(0.4727707 0.0002266402 -0.004642985)
(0.5673599 -0.001495892 -0.01767022)
(0.4905914 -0.0005858341 -0.01453104)
(0.5194654 -0.000316159 -0.009456963)
(0.4963714 1.464494e-05 -0.004194075)
(0.4377067 0.0001586672 -0.06652296)
(0.4744275 8.874007e-05 -0.003748248)
(0.5685913 -0.001187724 -0.01812482)
(0.4910183 -0.000406464 -0.01462856)
(0.5210006 -5.851014e-05 -0.009388237)
(0.4968241 3.40114e-05 -0.003883132)
(0.4397052 0.002463517 -0.06964923)
(0.4734096 0.0001562507 -0.003678463)
(0.5679581 -0.000506493 -0.01823506)
(0.4902626 -0.0001374987 -0.01483356)
(0.5199537 0.0002527385 -0.00914867)
(0.496152 0.0002682015 -0.004070458)
(0.4434308 0.002938653 -0.07189886)
(0.4719154 -7.947031e-05 -0.004307997)
(0.5671283 -0.00042293 -0.01808099)
(0.4895014 -0.0001599331 -0.01491333)
(0.519918 0.0003272419 -0.008963926)
(0.49637 0.0001246756 -0.003865941)
(0.4456362 0.002170194 -0.07722047)
(0.4690563 0.0005310611 -0.004909504)
(0.5666901 -4.289557e-05 -0.01739684)
(0.4881802 0.0001952788 -0.01503147)
(0.5189284 0.0002920253 -0.008676663)
(0.4956589 0.0002691951 -0.003994196)
(0.446916 0.001148045 -0.07854335)
(0.4711858 -0.001169645 -0.005163836)
(0.5659466 0.0003381622 -0.01687677)
(0.4903774 0.0002947927 -0.01381998)
(0.5192426 0.0002397994 -0.008485373)
(0.4966609 -0.0001924892 -0.003719787)
(0.4454618 2.218395e-05 -0.07771522)
(0.4677967 -0.002112966 -0.005754006)
(0.5665367 0.0006127969 -0.01572048)
(0.490652 0.0009373786 -0.01314425)
(0.5196469 0.0004235401 -0.007873591)
(0.4959737 0.0002957554 -0.00427596)
(0.442636 -0.002981088 -0.06447189)
(0.4668864 0.00173303 -0.006913475)
(0.564204 -0.0005729559 -0.01528495)
(0.4900689 0.0004023764 -0.01239004)
(0.5178915 0.0002886582 -0.006912645)
(0.4957137 0.0001592662 -0.004151157)
(0.4518903 -0.002615166 -0.009389425)
(0.522781 -0.01256196 0.002624426)
(0.503611 -0.007389851 0.0005531799)
(0.5148342 -0.007498047 -0.0007861663)
(0.5052497 -0.005457588 -0.000273787)
(0.5106434 -0.1177849 0.001434388)
(0.4138326 -0.0500726 -0.003079121)
(0.5059346 0.02963118 0.001381569)
(0.4622247 -0.01639487 -0.001734854)
(0.4936324 0.0005881946 -0.0004969924)
(0.4865906 -0.004230311 0.0001145015)
(0.4677136 -0.03404657 -0.0006587412)
(0.4233223 -0.03381759 -0.007164328)
(0.5318623 -0.0004878561 0.0009038281)
(0.4789236 -0.02041559 -0.001134021)
(0.5124725 -0.003813591 -0.001499682)
(0.4965002 -0.002652535 -0.0005732497)
(0.4159328 -0.007265786 -0.05418906)
(0.4413888 -0.0102393 -0.007576317)
(0.5444442 0.0002741218 -0.0007690125)
(0.4741733 -0.01359734 -0.001893498)
(0.4980954 -0.005377381 -0.0009392686)
(0.4877852 -0.003943033 0.0008663964)
(0.3558231 -0.004617058 -0.05362051)
(0.4923892 -0.008816992 0.007953151)
(0.5752243 -0.002787711 -0.005436386)
(0.5028238 -0.005721646 -0.003656744)
(0.5251756 -0.004882332 -0.004485424)
(0.5018355 -0.002703776 -0.001259378)
(0.5265453 0.01274203 -0.05952836)
(0.4747017 -0.001985643 0.01061409)
(0.5585419 0.002680211 -0.002393922)
(0.4928773 -0.0002078891 -0.002009083)
(0.5134285 -0.0005923014 -0.002545059)
(0.4940912 0.001933193 -0.001596192)
(0.5177678 0.008372884 -0.03951275)
(0.4632414 0.0004211732 0.009921553)
(0.5483637 0.0004352568 -0.001609488)
(0.4906995 0.0004221121 -0.001036001)
(0.5090357 -0.001174498 -0.001531258)
(0.4965653 -0.00062196 -0.0003216736)
(0.51606 0.01316035 -0.03856838)
(0.4624987 0.001751176 0.01123787)
(0.5427596 -0.001079595 -0.002118653)
(0.4886771 -0.0001266763 -0.001184539)
(0.5083082 -0.001021964 -0.001360127)
(0.4957659 -0.0006091791 0.0001183132)
(0.5159097 0.01521956 -0.04065849)
(0.4704049 0.001603625 0.009593304)
(0.5460599 -0.0008444076 -0.001853378)
(0.4943488 -0.0008617506 -0.001058944)
(0.5103696 -0.001083005 -0.001587574)
(0.4971887 -0.0008236663 0.0005097806)
(0.5182855 0.0073474 -0.03514346)
(0.4682076 0.0006056435 0.01256781)
(0.5444252 -0.001022862 -0.001998849)
(0.492806 -0.0006098126 -0.001416402)
(0.5086767 -0.0008569159 -0.001665308)
(0.4962445 -0.0009287169 0.0004102118)
(0.5235052 0.004914679 -0.02197089)
(0.4709348 0.0002970405 0.01287396)
(0.5456018 -0.001136901 -0.001840472)
(0.4944775 -0.0007235276 -0.001599377)
(0.5102021 -0.0009250201 -0.001876995)
(0.4967277 -0.0009017338 0.0005223002)
(0.5288737 0.003485317 -0.008003175)
(0.4736928 -0.00027911 0.01296179)
(0.5471034 -0.001285628 -0.001798699)
(0.4951936 -0.0004926479 -0.001690813)
(0.5114822 -0.0006607682 -0.002229527)
(0.4969255 -0.0007778438 0.000594166)
(0.5334394 0.002301759 0.00309077)
(0.4741132 -0.0005453656 0.01373729)
(0.5468697 -0.001424599 -0.001749912)
(0.494019 -0.0005882789 -0.001691753)
(0.5124428 1.163132e-05 -0.00258211)
(0.4967329 -0.0004496893 0.0008334171)
(0.5374407 0.00163739 0.01046398)
(0.4738226 -0.0004863298 0.01412383)
(0.5477678 -0.001539515 -0.001790378)
(0.4915608 -0.0008251855 -0.001851142)
(0.5113579 8.106473e-05 -0.00220091)
(0.4959033 -0.0002274441 0.0009343396)
(0.5409618 0.001619925 0.01507035)
(0.4744971 -9.066645e-05 0.01479772)
(0.5486639 -0.001673914 -0.001800282)
(0.4903965 -0.0006563291 -0.001580274)
(0.5124893 -1.646501e-05 -0.002457388)
(0.495639 -0.00013343 0.001301196)
(0.5442738 0.0009590049 0.01839888)
(0.4763832 -2.238394e-05 0.01554669)
(0.5500656 -0.001470741 -0.001904865)
(0.4904583 -0.000542264 -0.001294572)
(0.5120674 -0.0001437507 -0.001992263)
(0.4957848 -9.058149e-05 0.001499255)
(0.5460422 0.0007535024 0.01938308)
(0.4784736 -6.514151e-05 0.0154369)
(0.5514382 -0.001081456 -0.001967087)
(0.4900371 -0.0001725847 -0.0008804508)
(0.5134982 4.676509e-05 -0.002060204)
(0.4956622 0.0001304822 0.001715804)
(0.5458373 0.0002412681 0.01673554)
(0.4772926 -0.0001062621 0.01574098)
(0.5500664 -0.000588071 -0.001977724)
(0.4889784 0.0001534293 -0.0006361742)
(0.5119697 -5.369548e-05 -0.001612037)
(0.495394 0.0002716302 0.00199266)
(0.5448434 0.001379066 0.01464973)
(0.4774886 -7.904133e-06 0.01523681)
(0.5494708 -0.0001016602 -0.001946321)
(0.4888254 0.0004452368 -0.0002621524)
(0.5124097 0.0001342616 -0.001975908)
(0.4951927 0.0002905483 0.002227906)
(0.5437558 0.00162549 0.01373781)
(0.4753965 6.54125e-05 0.01526474)
(0.5484251 0.0001380865 -0.002061011)
(0.4869535 0.0002179434 -0.0006715301)
(0.5114357 -0.0001501713 -0.001707129)
(0.4945586 0.0001430991 0.002151516)
(0.5425714 0.001795068 0.01170426)
(0.4777134 -2.311302e-05 0.01420424)
(0.5497106 0.0007823005 -0.001858438)
(0.4888887 0.000455088 -0.0001446307)
(0.5120447 -0.0001628592 -0.002576236)
(0.4956449 -1.563085e-05 0.002647706)
(0.5387695 -0.0001487858 0.00528702)
(0.4713086 -0.0002824249 0.01387163)
(0.5472332 0.0006512762 -0.00203709)
(0.4853565 0.0009623255 -0.001012693)
(0.5111933 -8.639605e-05 -0.001278478)
(0.4927985 -0.0004554346 0.002808949)
(0.5313063 -0.001437373 -0.01340391)
(0.4759641 -0.002029929 0.01021887)
(0.5487145 0.0009550482 -0.002010649)
(0.4892464 0.001469655 0.0005014747)
(0.5149072 0.0001440672 -0.001506133)
(0.4959672 0.0003162968 0.002473447)
(0.4062041 0.0757719 -0.1078075)
(0.4617522 -0.001163824 0.01351451)
(0.5399285 -0.0002752081 -0.001000617)
(0.4825795 -0.0003319763 0.0009020167)
(0.5105105 -0.0001685421 -0.0004540511)
(0.4936218 -0.0003776046 0.003341741)
(0.4539372 -0.002453078 -0.004173961)
(0.5153423 -0.01036497 -0.0007983796)
(0.5005378 -0.006390126 0.004284023)
(0.5038132 -0.00364547 0.0002357409)
(0.505823 -0.004796497 0.0009335494)
(0.5103929 -0.1146747 0.00122954)
(0.4146734 -0.04985613 0.003172724)
(0.5065127 0.03262906 -0.001669068)
(0.4636849 -0.01567303 0.00145955)
(0.4949173 0.001837932 0.0003792905)
(0.4868664 -0.003980323 6.1387e-05)
(0.4638566 -0.04135627 0.0007410179)
(0.4227261 -0.03380022 0.007158257)
(0.5313346 0.0007792851 -0.0008082839)
(0.4792366 -0.01995774 0.001165843)
(0.5127976 -0.003522611 0.001492978)
(0.4969012 -0.002604707 0.0005487686)
(0.3055045 -0.01890667 0.0003772222)
(0.4399012 -0.008327898 0.007393206)
(0.5432146 -4.261871e-05 0.001348534)
(0.4741271 -0.01317045 0.001977432)
(0.498144 -0.005361402 0.0009671211)
(0.4877619 -0.003797394 -0.0008674904)
(0.3099898 -0.009992705 -0.002752174)
(0.4897393 -0.005561948 -0.006622002)
(0.5734424 -0.002517821 0.006480399)
(0.502138 -0.005899654 0.003809208)
(0.525023 -0.004757144 0.004391885)
(0.5016234 -0.002680398 0.001336459)
(0.2242056 -0.001120372 0.0003304439)
(0.475664 -0.002861038 -0.005746967)
(0.5561475 0.002158381 0.002996092)
(0.4923724 -0.0001814523 0.001996014)
(0.5113406 -0.0008330689 0.002309242)
(0.49367 0.00208898 0.001947788)
(0.2210794 -0.0001555999 0.0001632137)
(0.4674544 0.0003466277 -0.0001141015)
(0.5458383 0.0001298306 0.001621158)
(0.490678 0.0003088795 0.0009643994)
(0.5082255 -0.001228601 0.001527167)
(0.4966501 -0.000831275 0.0002060604)
(0.2202567 -8.632944e-05 0.000224454)
(0.469863 0.001779534 -0.0004684044)
(0.5446993 -0.0004231165 0.001650286)
(0.490251 -0.0004746695 0.0004485543)
(0.5084616 -0.0009848332 0.001301097)
(0.4956055 -0.0006700901 -5.019389e-05)
(0.2196889 -8.804301e-05 0.0001368456)
(0.4740267 0.002102528 -0.002156969)
(0.5459551 -0.000751712 0.001597571)
(0.4936612 -0.0008355396 0.0007114709)
(0.5089706 -0.00109271 0.001607704)
(0.4965343 -0.0009731904 -0.0005155365)
(0.2191258 -3.884533e-05 0.0001097538)
(0.4767922 0.001095757 -0.001974154)
(0.5474111 -0.0008773549 0.001187269)
(0.4951183 -0.0008858129 0.0007983552)
(0.5100455 -0.0009212595 0.001527171)
(0.4966245 -0.001160443 -0.0007796861)
(0.2185247 3.888935e-06 0.0001510647)
(0.4797076 0.001082194 -0.001322695)
(0.5483573 -0.001017936 0.001167139)
(0.4961048 -0.0008944357 0.0009143133)
(0.5108999 -0.0009642854 0.001592071)
(0.4970074 -0.0009346103 -0.0009775566)
(0.2181494 8.847747e-06 0.0002821889)
(0.4820556 0.0003907389 -0.0005648421)
(0.5492098 -0.001054885 0.001156161)
(0.497489 -0.0007931974 0.0009467028)
(0.5119548 -0.0007747545 0.001530097)
(0.4963204 -0.0008754476 -0.0009483198)
(0.2180261 1.24961e-05 0.0004643984)
(0.483206 -8.64827e-05 -5.63231e-05)
(0.5496037 -0.001146965 0.001074949)
(0.4975874 -0.0006808721 0.0009161188)
(0.5132668 -0.0002513619 0.001327034)
(0.4958311 -0.0004475382 -0.0009688632)
(0.2180813 1.289749e-05 0.0006722454)
(0.4836296 -0.0005530138 4.125225e-05)
(0.5502163 -0.001292795 0.001254562)
(0.4965679 -0.0006405892 0.001040785)
(0.5135448 0.00025886 0.0008052715)
(0.4953468 0.0003136474 -0.001273767)
(0.2180178 1.716476e-05 0.0008226859)
(0.4827782 -0.0007533066 -5.484683e-05)
(0.5493427 -0.001299534 0.001315101)
(0.4948917 -0.0005138823 0.0009186506)
(0.5122148 0.0002117231 0.000909837)
(0.4947146 0.0005862774 -0.001382553)
(0.2178882 5.628107e-06 0.0009255139)
(0.4830563 -0.0005196029 -0.0003502376)
(0.5491138 -0.001197178 0.001670031)
(0.4941769 -0.0003802105 0.0007692348)
(0.5120429 0.000180475 0.0007299905)
(0.4941135 0.0005723118 -0.001353195)
(0.2178462 2.401885e-06 0.000971844)
(0.4826922 -0.0003194003 -0.0005481635)
(0.5477914 -0.0008755186 0.001881903)