/*--------------------------------*- C++ -*----------------------------------*\
  =========                 |
  \\      /  F ield         | OpenFOAM: The Open Source CFD Toolbox
   \\    /   O peration     | Website:  https://openfoam.org
    \\  /    A nd           | Version:  7
     \\/     M anipulation  |
\*---------------------------------------------------------------------------*/
FoamFile
{
    version     2.0;
    format      ascii;
    class       volVectorField;
    location    "0.1";
    object      U;
}
// * * * * * * * * * * * * * * * * * * * * * * * * * * * * * * * * * * * * * //

dimensions      [0 1 -1 0 0 0 0];

internalField   nonuniform List<vector> 
82743
(
(0.8064151 -2.352528 -0.008593643)
(0.6218539 -2.343394 -0.01146093)
(0.5416983 -2.154776 -0.04828167)
(0.4625999 -2.01204 -0.03854725)
(0.3977208 -1.790781 -0.03616197)
(0.3066876 -1.648576 -0.03932072)
(0.235751 -1.513609 -0.03727189)
(0.1704281 -1.435662 -0.0390989)
(0.1289607 -1.367811 -0.03664334)
(0.9163408 -2.225881 0.02023497)
(0.7805695 -2.216048 0.02158364)
(0.7139956 -2.059355 -0.004282976)
(0.6638971 -1.928904 -0.001188138)
(0.5948141 -1.686694 0.003688509)
(0.4531424 -1.540788 -3.509821e-05)
(0.3487164 -1.4172 -0.0005590186)
(0.2513869 -1.361979 -0.0006786183)
(0.1884059 -1.307558 -0.0002336388)
(0.9678698 -2.148705 0.01595339)
(0.8710562 -2.154068 0.02327808)
(0.8370806 -2.024934 -0.005504285)
(0.8537199 -1.900825 0.002257875)
(0.8058791 -1.561913 0.01276218)
(0.5961175 -1.408832 0.0035639)
(0.4338842 -1.305298 0.004751605)
(0.2918074 -1.273326 0.004574196)
(0.2161406 -1.2531 0.007176937)
(1.004921 -2.108521 0.02042058)
(0.9322275 -2.120488 0.02116045)
(0.9367688 -2.025263 -0.005513979)
(1.072535 -1.922116 0.005459044)
(1.12104 -1.460779 0.01399548)
(0.7819865 -1.186195 0.009347826)
(0.4792408 -1.106676 0.01978871)
(0.2747593 -1.157272 0.01974699)
(0.1974715 -1.169989 0.02126708)
(1.02756 -2.0812 0.006960629)
(0.9651007 -2.121639 0.01763058)
(1.033309 -2.123466 -0.01434019)
(1.289462 -2.148095 -0.009606684)
(1.652119 -1.133666 -0.03594442)
(1.023881 -0.786019 -0.02215879)
(0.4193044 -0.7877497 0.002709026)
(0.1442189 -0.9914977 0.01022741)
(0.09827658 -1.152295 0.02550932)
(1.040339 -2.0876 0.01239219)
(0.9863858 -2.173181 0.0205331)
(1.078025 -2.312018 -0.0219061)
(1.170753 -2.385793 -0.0629142)
(2.25344 -1.246098 -0.1522077)
(0.9493291 -0.1755061 -0.0578786)
(0.4723158 -0.2425895 0.0250361)
(-0.2330841 -0.8234536 0.01105946)
(0.07072853 -1.109595 0.01949926)
(0.9638977 -2.046723 0.006998712)
(0.8017334 -2.160571 0.02341406)
(0.7527312 -2.326266 -0.0203537)
(0.6476627 -2.551806 -0.04247396)
(0.2292889 -3.441198 0.007551047)
(0.001443193 -1.181242 -0.01983035)
(0.9254305 -1.91103 0.00833946)
(0.6945771 -2.003477 0.01863862)
(0.5654356 -2.095937 -0.01426055)
(0.3630126 -2.212269 -0.03033635)
(0.0499713 -2.561491 -0.008070213)
(0.0706558 -1.322154 -0.005300398)
(0.8865854 -1.753384 0.007855068)
(0.6359074 -1.82248 0.01556029)
(0.4810502 -1.869821 -0.007134123)
(0.2600801 -1.908482 -0.02177851)
(0.0356657 -2.168626 -0.005522594)
(0.07618751 -1.339592 -0.002796885)
(0.8726978 -1.566856 0.009363452)
(0.6089311 -1.61505 0.01462321)
(0.4380476 -1.639812 -0.005044001)
(0.2263982 -1.635763 -0.02369708)
(0.03394011 -1.87114 -0.0008730684)
(0.07299432 -1.410429 -0.009132143)
(0.8683883 -1.380732 0.01382918)
(0.618818 -1.410655 0.01153755)
(0.4440382 -1.410072 -0.003316437)
(0.2354681 -1.397351 -0.02290635)
(0.01748522 -1.592423 -0.01355737)
(0.0697226 -1.462792 -0.0425833)
(0.8816206 -1.20572 0.01567102)
(0.6633347 -1.20976 0.006957692)
(0.489692 -1.183049 -0.003785237)
(0.2706655 -1.17691 -0.02512128)
(0.0155242 -1.299861 -0.02013536)
(-0.006228977 -1.568506 0.01393317)
(0.9100762 -1.056809 0.009192452)
(0.7237667 -1.02759 0.007146644)
(0.5822726 -0.9383185 -0.01967219)
(0.3786805 -0.9238776 -0.03785456)
(0.022993 -0.9488135 -0.01932962)
(0.07802887 -2.161319 -0.04028158)
(0.9381392 -0.9358943 0.01748502)
(0.773889 -0.8963995 0.01790021)
(0.7173341 -0.7762272 -0.0243438)
(0.5695636 -0.6253545 -0.03640832)
(0.4068923 -0.0903551 0.01631103)
(1.040846 -0.02645046 0.001754623)
(1.437504 -0.04944128 0.002653567)
(2.345463 -0.2655559 0.008005926)
(1.183493 -1.744419 -0.1040863)
(0.9706379 -0.8535343 0.02443555)
(0.8566385 -0.8272875 0.02303854)
(0.8346828 -0.7326245 -0.01380545)
(0.8152463 -0.6356003 -0.0241194)
(0.9666321 -0.5245534 -0.02006672)
(1.123895 -0.5255783 -0.006020734)
(1.331675 -0.6723025 -0.01720065)
(1.302755 -1.082415 -0.03607854)
(1.036927 -1.22172 -0.03104559)
(0.999129 -0.8012633 0.01617912)
(0.9059793 -0.7867075 0.02396777)
(0.9145147 -0.7331501 -0.002572013)
(0.9015246 -0.6612005 -0.007829718)
(0.9843671 -0.6069575 -0.006350449)
(1.065272 -0.641456 -0.003195383)
(1.176483 -0.7114581 0.0006796828)
(1.147832 -0.9543072 0.0004809715)
(0.9981557 -1.016289 -0.008546407)
(1.011124 -0.7668343 0.01932166)
(0.938585 -0.7671892 0.02549217)
(0.9480587 -0.7337164 -0.0003591591)
(0.9279588 -0.7038126 -0.002042516)
(0.9863132 -0.6830856 -0.001879148)
(1.016584 -0.7099985 0.00140818)
(1.066388 -0.7642965 0.004743957)
(1.039241 -0.890993 0.003018225)
(0.9498375 -0.940516 0.003864715)
(1.020052 -0.7443449 0.01910033)
(0.9575854 -0.7514292 0.02723905)
(0.9656799 -0.7324899 0.001375016)
(0.9446029 -0.7107765 -0.005895556)
(0.9763593 -0.7021812 -0.005654519)
(0.9827289 -0.7262905 -0.002794924)
(0.9996359 -0.7586535 -0.0005397709)
(0.9709667 -0.8343838 -0.0003917467)
(0.9116572 -0.8667142 -0.000789595)
(0.6555695 -2.681335 -0.04570101)
(0.4139223 -2.501092 0.00190056)
(0.3295508 -2.275393 -0.009374639)
(0.2358706 -2.06375 -0.007250705)
(0.1972205 -1.851354 -0.006167336)
(0.147242 -1.689546 -0.007244018)
(0.1117325 -1.551333 -0.007104349)
(0.0783556 -1.454263 -0.008044975)
(0.05763582 -1.378821 -0.008818091)
(0.9648432 -0.6900171 -0.143583)
(0.8017929 -2.3496 0.005614644)
(0.6990248 -2.369699 -0.007518901)
(0.549436 -2.173976 0.01948098)
(0.4826124 -2.02583 0.002351612)
(0.4092295 -1.809788 0.0120953)
(0.3130868 -1.668061 0.003699506)
(0.242951 -1.534828 0.004075687)
(0.176346 -1.45102 0.002581216)
(0.133569 -1.381269 0.001660765)
(0.9069066 -0.5540011 -0.06169357)
(0.9001595 -2.208514 0.01187644)
(0.8202034 -2.229339 -0.0167631)
(0.7217261 -2.071526 0.001739349)
(0.6781288 -1.947175 -0.0060246)
(0.6069848 -1.694865 0.00116476)
(0.4597327 -1.554715 -0.003194349)
(0.3547297 -1.429227 -0.002600732)
(0.251275 -1.374377 -0.003873098)
(0.1899004 -1.317361 -0.00369766)
(0.938321 -0.5165052 -0.0845563)
(0.9411903 -2.142282 0.01661356)
(0.9090227 -2.155181 -0.003695971)
(0.852501 -2.030048 0.008419651)
(0.873391 -1.915128 0.0003620617)
(0.8148264 -1.559448 0.006667557)
(0.5951285 -1.415154 -0.004752)
(0.4330855 -1.315217 -0.0009117793)
(0.2907906 -1.279279 -0.003454593)
(0.2227487 -1.265718 -0.001327859)
(0.9256274 -0.4973121 -0.07153842)
(0.9815307 -2.103263 0.01781357)
(0.9837486 -2.122458 -0.007186766)
(0.9687025 -2.040879 -0.002045608)
(1.110214 -1.939346 -0.0005864567)
(1.120456 -1.392526 -0.003070971)
(0.7557704 -1.196128 -0.01589642)
(0.4887375 -1.108181 -0.01266795)
(0.2797735 -1.175501 -0.01140304)
(0.1965492 -1.169533 -0.009001424)
(0.9321012 -0.4877938 -0.07457293)
(1.000166 -2.091594 0.01066814)
(1.025847 -2.133702 -0.007243897)
(1.056445 -2.144401 0.0004297282)
(1.316426 -2.13486 0.01014452)
(1.639625 -1.061601 0.001681872)
(1.12618 -0.8027572 -0.02735871)
(0.462999 -0.7678163 -0.0315502)
(0.1283804 -0.9452218 -0.02233127)
(0.120294 -1.122978 -0.004323912)
(0.9312714 -0.4904065 -0.07049791)
(1.006212 -2.10382 0.01138267)
(1.01264 -2.19707 -0.004352017)
(1.074115 -2.357681 0.02104259)
(1.247495 -2.491981 0.006539999)
(2.243859 -1.268596 0.07552691)
(1.232415 -0.4052774 -0.002381972)
(0.4364666 -0.1798448 -0.04236656)
(-0.21039 -0.7541424 -0.01484665)
(0.08119537 -1.068822 0.01186536)
(0.9303146 -0.4956765 -0.07578046)
(0.9308665 -2.055144 0.01179641)
(0.8154708 -2.174794 0.004399709)
(0.7551227 -2.36919 0.03231449)
(0.709674 -2.686616 0.0205953)
(0.2618328 -3.652698 0.06976581)
(0.06307603 -1.272679 0.007442928)
(0.9294962 -0.4790275 -0.08101836)
(0.883897 -1.909603 0.0202737)
(0.7164697 -2.013752 0.002178382)
(0.5493499 -2.106161 0.01881231)
(0.3428466 -2.312131 0.03683199)
(0.07789613 -1.308351 -0.01343945)
(0.9266846 -0.4457996 -0.08179575)
(0.8463599 -1.753913 0.02143885)
(0.6633919 -1.830854 -0.003193971)
(0.4568284 -1.87472 0.03073178)
(0.246083 -1.976115 0.02126393)
(0.06410589 -1.378219 -0.01117112)
(0.9269971 -0.4065172 -0.08429575)
(0.8332176 -1.571817 0.02312237)
(0.6350958 -1.618823 0.002839273)
(0.417845 -1.636151 0.02415531)
(0.1947932 -1.70001 0.0132749)
(0.05088373 -1.443186 -0.0142815)
(0.9284973 -0.3618285 -0.08574641)
(0.8299507 -1.389087 0.02218697)
(0.6353359 -1.415774 0.001077158)
(0.4172896 -1.399009 0.03313138)
(0.1991472 -1.445208 0.004208322)
(0.07601026 -1.519885 -0.0354231)
(0.9309997 -0.3141032 -0.08685428)
(0.842858 -1.210876 0.02219798)
(0.6597179 -1.211948 -0.003142115)
(0.4486416 -1.180294 0.03489263)
(0.1883295 -1.19469 -0.005314542)
(0.169272 -1.720009 -0.009244983)
(0.933918 -0.2668906 -0.08467436)
(0.872758 -1.049898 0.02616175)
(0.705049 -1.031395 -0.001205068)
(0.5521927 -0.9401633 0.01960804)
(0.3245755 -0.8800263 0.00319081)
(0.3424675 -1.944921 -0.07182081)
(0.9345271 -0.2239416 -0.08236787)
(0.9130379 -0.9275322 0.0328921)
(0.8053758 -0.9044804 -0.004030203)
(0.7217033 -0.7833046 0.02453977)
(0.5885948 -0.6231205 0.006293574)
(0.4848257 -0.142198 -0.01737332)
(1.195135 -0.1099649 0.02206122)
(1.600155 -0.1641866 0.0307341)
(3.119051 -0.5406078 0.0408483)
(1.257998 -1.421832 -0.0002841842)
(0.9369039 -0.1930482 -0.08529307)
(0.9422409 -0.8461032 0.02076044)
(0.8889162 -0.830553 -0.006373822)
(0.8465508 -0.7436604 0.02368718)
(0.8200911 -0.6401946 0.01443645)
(0.961879 -0.5220094 0.01332324)
(1.132584 -0.5090111 0.01912092)
(1.363399 -0.6782978 0.0278828)
(1.3246 -1.12033 0.01293438)
(1.063162 -1.166195 0.02067756)
(0.9382883 -0.1758019 -0.0836451)
(0.971409 -0.7944531 0.02529867)
(0.9347285 -0.7899169 -0.008619573)
(0.9271685 -0.7418833 0.01537182)
(0.9124972 -0.6749837 0.007197693)
(0.9845499 -0.6127476 0.006472917)
(1.067287 -0.6495793 0.002703041)
(1.186515 -0.72638 0.007135617)
(1.146328 -0.9640712 -0.005407181)
(0.9923838 -1.047333 -0.00335462)
(0.9390622 -0.1660744 -0.08229726)
(0.9860616 -0.7633704 0.02324058)
(0.963916 -0.7665633 -0.01079905)
(0.9599232 -0.73765 0.01636445)
(0.9402806 -0.7097492 0.006382991)
(0.9904148 -0.6859244 0.00666258)
(1.021183 -0.7101956 0.004612176)
(1.070756 -0.7654558 0.007109585)
(1.04582 -0.8940711 0.002789877)
(0.9554302 -0.9386925 0.003895108)
(0.9391944 -0.1604692 -0.08208574)
(0.9969562 -0.739288 0.02386776)
(0.9803891 -0.747734 -0.01111149)
(0.9842008 -0.7344421 0.01491231)
(0.963203 -0.7154182 0.005990353)
(0.984066 -0.7059657 0.00718331)
(0.988114 -0.7296674 0.003931119)
(1.002992 -0.7619862 0.003932101)
(0.9738131 -0.8372578 0.0001514428)
(0.9128059 -0.8736232 0.0009384829)
(0.5996851 -2.634944 -0.03346289)
(0.3807779 -2.386835 -0.01052616)
(0.3322928 -2.256462 -0.02369801)
(0.2333509 -2.026341 -0.02583818)
(0.2109892 -1.864192 -0.02164994)
(0.1464785 -1.708892 -0.02240685)
(0.1136226 -1.562914 -0.01953772)
(0.08164745 -1.481561 -0.02006784)
(0.05876716 -1.387596 -0.01894047)
(1.096535 -0.8150091 -0.1592699)
(0.7673535 -2.276381 0.04091236)
(0.6393254 -2.295405 0.006752941)
(0.5568076 -2.090666 0.008074976)
(0.4771997 -1.969093 -0.0006535771)
(0.4306856 -1.756545 -0.0001747277)
(0.3232923 -1.624119 -0.003405449)
(0.2549646 -1.495879 -0.003700879)
(0.1835163 -1.419234 -0.004879844)
(0.1377016 -1.349118 -0.005499228)
(0.892533 -1.382524 -0.122137)
(0.9050334 -2.097721 0.0520282)
(0.7251679 -2.191841 -0.01464033)
(0.7121636 -2.063132 0.008467655)
(0.6489645 -1.930044 -0.007744701)
(0.5975943 -1.691206 0.0001901814)
(0.4493907 -1.550124 -0.003921058)
(0.3523696 -1.42357 -0.002879989)
(0.2492883 -1.370779 -0.004085584)
(0.1907965 -1.311622 -0.003488641)
(0.8840909 -1.220924 -0.05729429)
(0.9292406 -2.058636 0.06084945)
(0.8388635 -2.135206 -0.003010704)
(0.8424684 -2.012782 0.01679033)
(0.8563038 -1.890847 0.007125164)
(0.8128218 -1.543082 0.008122449)
(0.5935689 -1.396961 0.0003006802)
(0.4333248 -1.299229 0.001430776)
(0.2880292 -1.268804 0.001027267)
(0.22015 -1.251461 0.001637443)
(0.8734775 -1.197416 -0.06525277)
(0.96749 -2.017037 0.06102952)
(0.8924916 -2.115436 0.0005036404)
(0.9388489 -2.038085 0.01674241)
(1.076509 -1.927295 0.01295565)
(1.113177 -1.410497 0.01526465)
(0.7516949 -1.196446 0.002638172)
(0.4930356 -1.099989 -0.0002638029)
(0.2762804 -1.168777 0.001728789)
(0.1944529 -1.171536 0.002557072)
(0.940906 -1.169325 -0.07642957)
(0.9992842 -2.019716 0.05788473)
(0.9209084 -2.132333 0.008832594)
(1.030648 -2.156433 0.01586245)
(1.293208 -2.131273 0.01575321)
(1.630778 -1.102285 0.01900678)
(1.112345 -0.805689 0.003859942)
(0.4802302 -0.7947077 -0.00337879)
(0.1409968 -0.9607721 0.003572289)
(0.1268514 -1.139204 0.005359785)
(0.9470171 -1.200027 -0.07521647)
(0.9933353 -2.004708 0.06075502)
(0.9531245 -2.184527 -0.002056914)
(1.05442 -2.384901 0.01063164)
(1.233135 -2.485739 0.0205624)
(2.260154 -1.38619 0.00615146)
(1.369289 -0.4685766 0.001697386)
(0.4717081 -0.1877803 0.001809074)
(-0.2220738 -0.7575185 0.005964426)
(0.08333889 -1.072003 0.01068807)
(0.9109027 -1.170861 -0.08194951)
(0.9536111 -1.990376 0.0580566)
(0.7424287 -2.184094 -0.002824904)
(0.7676113 -2.395072 0.006967817)
(0.7123584 -2.65234 0.03602639)
(0.355914 -3.568561 0.001392086)
(0.04022011 -1.294768 -0.005482622)
(0.9072674 -1.119063 -0.07760262)
(0.9096084 -1.836779 0.06325208)
(0.6330328 -2.021022 -0.003293142)
(0.548877 -2.110532 0.002790389)
(0.2590423 -2.281678 0.02044943)
(0.06236572 -1.305383 -0.02670879)
(0.8962028 -1.033091 -0.07965428)
(0.8726099 -1.69841 0.06569402)
(0.5849967 -1.830059 -0.007385601)
(0.4373303 -1.868766 0.0192453)
(0.1273425 -1.988721 -0.004454441)
(0.0007220722 -1.392483 0.002288219)
(0.06606634 -1.34926 -0.002739924)
(0.8940378 -0.9304154 -0.07694212)
(0.8601682 -1.515647 0.06941302)
(0.545513 -1.609373 -0.003230452)
(0.4353227 -1.643093 0.006994102)
(0.08496584 -1.627892 0.01443233)
(-0.0310156 -1.404826 0.004998236)
(0.06636913 -1.444753 0.008459879)
(0.8924346 -0.8265145 -0.07622338)
(0.8582822 -1.329929 0.0723485)
(0.549265 -1.422668 0.0001474616)
(0.4479591 -1.391112 0.01549242)
(0.1169718 -1.471993 0.03810184)
(-0.03733962 -1.434352 -0.003773391)
(0.1194731 -1.570125 0.0117092)
(0.8906066 -0.7228663 -0.07589149)
(0.866093 -1.151822 0.07311567)
(0.5957748 -1.213166 -0.0005772091)
(0.4511071 -1.190579 0.01940651)
(0.2219491 -1.129875 -0.00821244)
(0.2389651 -1.809154 0.008615453)
(0.8804442 -0.6291467 -0.07311623)
(0.892397 -1.002396 0.06861745)
(0.6700558 -1.024602 0.007357539)
(0.5732837 -0.9400381 0.01756929)
(0.3382212 -0.8452713 -0.003136348)
(0.4950568 -1.947606 -0.02318383)
(0.8530835 -0.5496379 -0.06424658)
(0.9295516 -0.900751 0.06624869)
(0.7324398 -0.908266 0.003081759)
(0.7146766 -0.7738554 0.01647957)
(0.5871144 -0.620926 0.007852139)
(0.4922024 -0.2197217 -0.004362304)
(1.188746 -0.1139547 0.004385077)
(1.606508 -0.1733505 0.009644595)
(3.220058 -0.764074 0.06416996)
(1.294041 -1.644784 0.008262582)
(0.9125826 -0.490593 -0.07393168)
(0.9608597 -0.8177762 0.06066865)
(0.8019405 -0.8232273 0.0003145244)
(0.830615 -0.7353151 0.0174028)
(0.8006907 -0.6489359 -0.0003018828)
(0.97035 -0.5157196 0.002527374)
(1.13774 -0.5079251 0.001681114)
(1.374501 -0.6828221 0.01250956)
(1.340316 -1.045123 -0.007874177)
(1.059702 -1.200866 0.01051906)
(0.8909568 -0.4710204 -0.06883289)
(0.9850022 -0.7624257 0.06048244)
(0.8551494 -0.7856595 0.00160231)
(0.9123632 -0.7404259 0.01870097)
(0.8860773 -0.6662929 0.004052193)
(0.9743665 -0.6025443 0.005547686)
(1.062834 -0.6432275 0.0007385285)
(1.173995 -0.7278128 0.004631413)
(1.146808 -0.9612013 -0.01070147)
(1.010324 -1.036373 0.00519637)
(0.9103815 -0.4393901 -0.07392192)
(0.9951455 -0.7325418 0.06038995)
(0.886978 -0.7657016 0.005768612)
(0.9414469 -0.7362788 0.02014604)
(0.9097567 -0.7092933 0.001539561)
(0.9830328 -0.6823129 0.006293627)
(1.01366 -0.7053967 0.002918824)
(1.06688 -0.7647173 0.004643652)
(1.041385 -0.8825851 0.000301573)
(0.9514885 -0.9425872 0.000869449)
(0.9095998 -0.429674 -0.07377736)
(1.002696 -0.7063388 0.0595452)
(0.9050028 -0.7488731 0.003454387)
(0.9583954 -0.735125 0.01603161)
(0.9283875 -0.7132128 0.001030642)
(0.9703002 -0.7028011 0.006222054)
(0.9778564 -0.7241785 0.00343386)
(0.9970794 -0.759517 0.004023891)
(0.9708807 -0.8348714 -0.0003055066)
(0.9135742 -0.8702144 0.002045678)
(0.595399 -2.636751 -0.001762043)
(0.3710232 -2.51866 0.007245376)
(0.3265077 -2.24551 0.02162856)
(0.2395079 -2.094585 0.02654585)
(0.1987651 -1.865018 0.02672689)
(0.1450757 -1.722697 0.02834426)
(0.1103396 -1.576815 0.02783117)
(0.0791814 -1.482435 0.0249976)
(0.05877185 -1.397868 0.0256096)
(1.122445 -0.788677 -0.06090102)
(0.7957022 -2.282917 -0.01730253)
(0.645542 -2.28735 -0.009519325)
(0.5576152 -2.140672 0.004182118)
(0.4826435 -2.011036 0.007370292)
(0.4214168 -1.792087 0.008818831)
(0.3223504 -1.656902 0.008939884)
(0.2506474 -1.526044 0.009687953)
(0.1815081 -1.445919 0.007792682)
(0.1372202 -1.374075 0.009552637)
(0.8830511 -1.367818 -0.03742485)
(0.9251155 -2.109483 -0.01084101)
(0.7633439 -2.209573 -0.01722078)
(0.7353288 -2.075251 0.002885671)
(0.6631321 -1.951179 3.406842e-05)
(0.6033284 -1.697636 0.005821337)
(0.4505522 -1.561012 0.002261742)
(0.3533499 -1.433389 0.003113845)
(0.2494834 -1.376592 0.002271031)
(0.1900205 -1.318342 0.003186252)
(0.8885449 -1.197512 -0.02257217)
(0.9439152 -2.074962 -0.003872415)
(0.8691362 -2.140655 -0.01542824)
(0.8519532 -2.023926 -0.001658393)
(0.8699754 -1.906607 0.0001510951)
(0.8158056 -1.54738 0.004744929)
(0.5924735 -1.408678 -0.002016374)
(0.4342788 -1.313458 -0.001651703)
(0.2896922 -1.278789 -0.001877967)
(0.2222158 -1.262763 0.000834627)
(0.9279038 -1.205988 -0.02732665)
(0.9930932 -2.026326 -0.003727594)
(0.9305573 -2.115307 -0.01398903)
(0.9541627 -2.040902 -0.002457715)
(1.090604 -1.936411 0.00179244)
(1.115518 -1.388389 0.009641826)
(0.7472771 -1.20722 -0.002934549)
(0.493554 -1.112957 -0.005571019)
(0.2756706 -1.175895 -0.003236525)
(0.1957912 -1.175235 -0.001832508)
(0.9190629 -1.166268 -0.01885445)
(1.002247 -2.014064 -0.003957088)
(0.9616263 -2.119097 -0.01104978)
(1.040814 -2.144359 -0.001441395)
(1.311412 -2.131513 0.003768485)
(1.624488 -1.031211 0.02186341)
(1.163319 -0.8115087 -0.001029237)
(0.4904596 -0.7925939 -0.01584129)
(0.14288 -0.9573641 -0.005356361)
(0.131728 -1.139816 -0.002305557)
(0.9325417 -1.181507 -0.01819237)
(1.008346 -2.017354 -0.004030712)
(0.969491 -2.178451 -0.0100437)
(1.064669 -2.370799 0.001022911)
(1.249757 -2.472467 0.01140139)
(2.226655 -1.158035 0.03366251)
(1.457421 -0.5209567 -0.004563677)
(0.4871812 -0.1595107 -0.01317538)
(-0.2164458 -0.7391347 -0.001986979)
(0.08372153 -1.071283 -0.004688828)
(0.9025233 -1.160046 -0.01788332)
(0.9595151 -1.979874 -0.004621805)
(0.758744 -2.173953 -0.00786957)
(0.7737209 -2.390786 0.00343958)
(0.7041412 -2.63991 0.01306985)
(0.3878877 -3.513457 -0.00960862)
(0.02840195 -1.302517 -0.001817771)
(0.8938563 -1.10254 -0.01587386)
(0.9181832 -1.835839 -0.0006821783)
(0.6562251 -2.023521 -0.007871643)
(0.5576031 -2.104244 0.004610322)
(0.2524297 -2.292275 0.0100183)
(0.04410375 -1.312936 -0.01081279)
(0.8847694 -1.019706 -0.01513255)
(0.8821969 -1.698203 -0.0002959351)
(0.6137456 -1.83004 -0.008361963)
(0.438342 -1.865322 0.01095504)
(0.1600659 -1.993921 0.01068924)
(-9.210737e-05 -1.403545 0.007819101)
(0.05470511 -1.335152 -0.005392296)
(0.8808872 -0.91696 -0.01442322)
(0.8689551 -1.522803 0.0003572423)
(0.5726758 -1.610875 -0.008213429)
(0.4354072 -1.649833 0.005637915)
(0.08596719 -1.609973 0.00731982)
(-0.07501536 -1.416797 0.008653512)
(0.08604364 -1.448863 -0.0007466675)
(0.880795 -0.8138908 -0.01231331)
(0.8667716 -1.342259 -0.001174997)
(0.5766094 -1.428425 -0.008497437)
(0.4507871 -1.381623 0.007878732)
(0.1080475 -1.468967 0.0113504)
(-0.07514026 -1.416057 0.008703342)
(0.1518535 -1.601476 0.003653856)
(0.8856853 -0.7082478 -0.01184571)
(0.8725463 -1.171607 -0.004339987)
(0.6038814 -1.218664 -0.01324834)
(0.4377936 -1.180479 0.009128308)
(0.2476869 -1.096426 0.001554369)
(0.2577888 -1.826909 0.01530296)
(0.8918707 -0.6137729 -0.009511612)
(0.898018 -1.008736 -0.006992368)
(0.6402951 -1.0272 -0.01255914)
(0.5584647 -0.9444363 0.006032733)
(0.3387475 -0.829609 -0.0002161536)
(0.5690733 -1.949209 -0.002681014)
(0.9084925 -0.5392327 -0.01482978)
(0.9308073 -0.8808652 -0.0007221486)
(0.7484957 -0.8968269 -0.01304332)
(0.7130844 -0.7830605 0.001382915)
(0.5866894 -0.6200853 0.004736241)
(0.4984448 -0.2222808 0.001646084)
(1.18999 -0.111332 0.002957456)
(1.616005 -0.1722801 0.004977091)
(3.206865 -0.800167 0.001950062)
(1.287933 -1.631552 0.009396052)
(0.9134969 -0.4863052 -0.01725338)
(0.960199 -0.8065026 -0.001418006)
(0.8304768 -0.8197467 -0.01188595)
(0.8364579 -0.7410272 0.002515561)
(0.8039495 -0.6533031 0.003767169)
(0.9724613 -0.5196932 0.004953208)
(1.143441 -0.5104674 0.004890152)
(1.371228 -0.6856611 0.00999097)
(1.341574 -1.04862 0.001598763)
(1.064265 -1.207709 0.008814111)
(0.9228632 -0.4542599 -0.01626151)
(0.9830124 -0.7554831 -0.00357446)
(0.8818968 -0.7816386 -0.0121035)
(0.9200295 -0.7405648 -0.0001869432)
(0.892632 -0.671735 0.0004181699)
(0.9776125 -0.6084396 0.00268752)
(1.066046 -0.6481434 0.001079947)
(1.174631 -0.7340206 0.003165691)
(1.145983 -0.9597581 -0.000380406)
(1.006446 -1.042597 0.000836448)
(0.9213533 -0.4316101 -0.02310109)
(0.9936735 -0.7249237 0.0007207077)
(0.9101521 -0.7600671 -0.01256043)
(0.9524013 -0.7330303 0.001622174)
(0.9187273 -0.7135077 0.0003042875)
(0.9875719 -0.6865625 0.002930222)
(1.018195 -0.707834 0.002276956)
(1.068188 -0.7668273 0.004077174)
(1.042355 -0.8829777 0.001459121)
(0.9522686 -0.9446823 0.003288323)
(0.9215813 -0.4181607 -0.01625707)
(1.003448 -0.7046759 -0.0007189653)
(0.9287122 -0.7424185 -0.01229489)
(0.9761677 -0.7286827 0.001428028)
(0.9401579 -0.7171131 -0.002129773)
(0.9753415 -0.7082414 0.001709839)
(0.9812911 -0.727793 0.001341922)
(0.9989314 -0.7625351 0.002166918)
(0.9718325 -0.8363407 0.0002973593)
(0.9137322 -0.8731614 0.001091078)
(0.6078765 -2.585579 -0.00930363)
(0.3847406 -2.39993 -0.003510075)
(0.3466226 -2.261456 -0.002043037)
(0.2367773 -2.063078 -0.001791535)
(0.21359 -1.878296 -0.001781833)
(0.1473871 -1.740887 -0.002420847)
(0.113673 -1.592165 -0.001686529)
(0.08077778 -1.499053 -0.002096713)
(0.06023945 -1.414165 -0.001547206)
(1.102858 -0.8697004 0.0261816)
(0.8248314 -2.245171 0.005532155)
(0.6575652 -2.295995 -0.001851108)
(0.5706865 -2.117664 0.004165812)
(0.476738 -1.988618 0.001567387)
(0.4288941 -1.776399 0.0009316668)
(0.320579 -1.644907 -0.001606735)
(0.2505391 -1.515598 -0.0009948458)
(0.180913 -1.43773 -0.002333966)
(0.1370958 -1.366812 -0.001555436)
(0.8997621 -1.343789 -0.01602158)
(0.9401486 -2.081386 0.008678482)
(0.7331527 -2.176089 -0.005358372)
(0.7262411 -2.062546 0.00482968)
(0.6475231 -1.94113 0.0001670059)
(0.5996264 -1.696817 -9.530137e-05)
(0.445095 -1.562933 -0.001783395)
(0.3513565 -1.435514 -0.0009213586)
(0.248199 -1.380038 -0.002288037)
(0.1903444 -1.32044 -0.001343883)
(0.8983865 -1.18869 -0.006973447)
(0.9533271 -2.042916 0.01173069)
(0.849034 -2.134858 -0.008119365)
(0.8540622 -2.018522 0.007319018)
(0.8621227 -1.895903 0.002591917)
(0.812692 -1.540524 -0.003147363)
(0.5876748 -1.404777 -0.001237838)
(0.4339706 -1.307797 -0.0006357876)
(0.2888331 -1.276125 -0.001473184)
(0.2213379 -1.257623 -0.0006234187)
(0.8937987 -1.158307 -0.007699519)
(0.9968118 -2.006315 0.01116109)
(0.9020431 -2.113371 -0.004160468)
(0.9459975 -2.039547 0.01014121)
(1.074915 -1.930293 0.007318899)
(1.108875 -1.392115 -0.004808479)
(0.7417132 -1.210828 0.0003595755)
(0.4929769 -1.117356 0.0009151662)
(0.2740869 -1.177972 -0.0007104335)
(0.1919442 -1.174729 -1.428199e-05)
(0.9668203 -1.128667 -0.007715856)
(1.025273 -2.005865 0.01346308)
(0.9324729 -2.130308 -0.0004920442)
(1.036778 -2.150754 0.009202697)
(1.30302 -2.128414 0.007761671)
(1.620585 -1.047092 -0.01952944)
(1.158886 -0.8149348 0.0002264539)
(0.4904691 -0.7962656 0.001450819)
(0.1417437 -0.9588942 0.0002151519)
(0.1265536 -1.140904 0.0001943696)
(0.9708365 -1.168468 -0.00777514)
(1.024149 -1.985781 0.01119785)
(0.9649949 -2.174331 -0.002573596)
(1.065548 -2.379303 0.008228894)
(1.237758 -2.474543 0.00703704)
(2.210568 -1.196299 -0.001847905)
(1.465674 -0.5347925 0.007085256)
(0.4839116 -0.1681304 -0.0005814029)
(-0.2286163 -0.7412618 0.0008261315)
(0.08213802 -1.076069 -0.001903125)
(0.9317957 -1.140608 -0.008513177)
(0.9803543 -1.975464 0.013078)
(0.7514103 -2.175566 -0.004053831)
(0.7836484 -2.393356 0.00845825)
(0.6982958 -2.641334 0.008281027)
(0.3463123 -3.566467 0.02046996)
(0.02705782 -1.305572 4.052481e-05)
(0.9296286 -1.090909 -0.008132198)
(0.9362661 -1.820745 0.01624406)
(0.6463417 -2.02123 -0.004000663)
(0.560707 -2.102509 0.006632757)
(0.241588 -2.297027 0.003779823)
(0.04588313 -1.314749 -0.002063256)
(0.9185629 -1.008266 -0.00871887)
(0.8984891 -1.692888 0.01537565)
(0.601809 -1.826444 -0.004938353)
(0.4415431 -1.862222 0.008079837)
(0.1539381 -1.984901 0.001168723)
(0.0008224962 -1.392291 0.002652147)
(0.05855797 -1.338107 -0.0004644218)
(0.9168546 -0.9062158 -0.008530373)
(0.8840536 -1.513575 0.01784641)
(0.5576142 -1.606519 -0.003574215)
(0.4399442 -1.65122 0.007634564)
(0.08428811 -1.596182 0.002115011)
(-0.06919378 -1.407971 0.01140304)
(0.09891707 -1.452527 -0.001690509)
(0.9172166 -0.8059181 -0.007609329)
(0.8824035 -1.331091 0.02046224)
(0.5590868 -1.425872 -0.0003761424)
(0.4556731 -1.381762 0.008263096)
(0.1059637 -1.461301 0.003534789)
(-0.06324055 -1.402396 0.0102125)
(0.1639063 -1.614885 0.001541502)
(0.9204002 -0.7068497 -0.0106554)
(0.8883846 -1.152561 0.02369016)
(0.5998015 -1.214948 0.001210862)
(0.4397006 -1.190028 0.005493124)
(0.250225 -1.088716 0.001063673)
(0.2672001 -1.836847 0.007430266)
(0.9099233 -0.6214245 -0.01044462)
(0.9162469 -0.9922991 0.02899211)
(0.6718973 -1.023472 0.003218827)
(0.5731784 -0.945556 0.0001145772)
(0.3424022 -0.8257951 -0.002152277)
(0.5596129 -1.959954 0.004202712)
(0.8879524 -0.5334247 -0.01306314)
(0.9581225 -0.8908333 0.02682916)
(0.7515935 -0.9107405 0.0008617179)
(0.7195037 -0.7753239 0.005148563)
(0.5838544 -0.614043 0.0009613095)
(0.4989019 -0.1998007 -0.001157086)
(1.190346 -0.1119178 0.001477579)
(1.617298 -0.1733901 0.002451638)
(3.210214 -0.8073598 -0.002643653)
(1.290662 -1.644139 0.008513041)
(0.9242693 -0.4797588 -0.0156224)
(0.9843049 -0.8155159 0.02315551)
(0.8116537 -0.8217111 -0.001347729)
(0.8357503 -0.7371472 0.008906648)
(0.800774 -0.6535503 0.002084185)
(0.974036 -0.5160798 0.002000199)
(1.143293 -0.5093128 0.0006827794)
(1.370306 -0.6855071 0.002516829)
(1.341201 -1.051739 0.0003001093)
(1.064797 -1.203044 0.003070986)
(0.9240326 -0.460524 -0.01683492)
(1.008146 -0.7501416 0.02425311)
(0.865307 -0.7886239 -0.00419231)
(0.9176685 -0.7426946 0.007656738)
(0.8831896 -0.6680557 0.0039696)
(0.9741105 -0.6038737 0.004302155)
(1.063333 -0.6454349 0.001994604)
(1.172528 -0.7334542 0.002302989)
(1.144482 -0.9588981 -0.0002260305)
(1.007632 -1.04364 0.001032544)
(0.905936 -0.4334297 -0.01009571)
(1.017271 -0.7290103 0.02341518)
(0.891318 -0.7647447 -0.002715251)
(0.9428384 -0.7361896 0.006813012)
(0.9055969 -0.7115629 0.00410009)
(0.9833596 -0.683712 0.004998505)
(1.014354 -0.7050773 0.00267505)
(1.066257 -0.7656912 0.002309658)
(1.040785 -0.8813555 0.0007223134)
(0.9518018 -0.9438002 0.001050041)
(0.9328284 -0.4157479 -0.01187681)
(1.024208 -0.7007494 0.01969798)
(0.9125589 -0.7480304 -0.00663762)
(0.9625814 -0.7345665 0.004567222)
(0.9259139 -0.7160814 0.005706663)
(0.9688441 -0.70577 0.005954634)
(0.9761943 -0.7247087 0.003952643)
(0.9957551 -0.7612566 0.002800851)
(0.969938 -0.8351362 0.001048725)
(0.9131189 -0.8724526 0.001138805)
(0.6117377 -2.566988 0.0001034724)
(0.3648459 -2.498847 0.003734048)
(0.3319246 -2.247911 0.003530366)
(0.2387003 -2.103615 0.003514266)
(0.2000779 -1.872847 0.002204598)
(0.1451636 -1.732859 0.00213178)
(0.1103956 -1.585661 0.001754374)
(0.07913971 -1.492608 0.001946182)
(0.05894785 -1.407058 0.001594129)
(1.050013 -0.9743719 -0.01465234)
(0.7737617 -2.280311 0.005852564)
(0.6295713 -2.295491 -0.0009041028)
(0.5455986 -2.129746 0.002477285)
(0.4727932 -2.000244 0.001627949)
(0.4169635 -1.785694 0.001139679)
(0.3198468 -1.652639 0.0008661682)
(0.249276 -1.522139 0.00106627)
(0.180459 -1.443193 0.0009864023)
(0.1370605 -1.371362 0.001171242)
(0.9072761 -1.331853 -0.002120239)
(0.9425807 -2.103054 -0.004304635)
(0.7455165 -2.194191 -0.003479414)
(0.7295025 -2.069062 -0.001352288)
(0.6505782 -1.948051 -0.0005433093)
(0.599103 -1.701192 -0.001216734)
(0.4480437 -1.5611 -0.0009474865)
(0.3520627 -1.43302 -0.0005501663)
(0.2485182 -1.375531 -0.0003935044)
(0.1900711 -1.316898 -0.0001918765)
(0.9171064 -1.172108 -0.004812763)
(0.9624406 -2.06066 -0.006955026)
(0.8598952 -2.141514 -0.005314539)
(0.8518943 -2.020793 -0.002888578)
(0.8646824 -1.896051 -0.0004960788)
(0.8161054 -1.554598 -0.003648298)
(0.5955281 -1.406704 -0.002067082)
(0.434771 -1.310921 -0.002040038)
(0.2893971 -1.277526 -0.001135603)
(0.2223308 -1.2603 -0.001166124)
(0.9528859 -1.188182 -0.007086494)
(1.006709 -2.016706 -0.009358337)
(0.9127166 -2.112979 -0.005001922)
(0.9470356 -2.040049 -0.001335724)
(1.088187 -1.929334 -0.0002917282)
(1.113491 -1.417176 -0.006116388)
(0.7521899 -1.202523 -0.002880734)
(0.4934971 -1.110217 -0.002926529)
(0.2737419 -1.174949 -0.001492532)
(0.1923453 -1.172497 -0.001634732)
(0.9464004 -1.150173 -0.006961825)
(1.014251 -1.999449 -0.01025752)
(0.9373054 -2.119045 -0.005423512)
(1.034641 -2.147105 -0.001620412)
(1.289426 -2.112072 0.0009346265)
(1.612374 -1.09774 -0.00809004)
(1.127095 -0.8081467 -0.005457939)
(0.4813193 -0.7867066 -0.00300092)
(0.1381648 -0.9576094 -0.001236125)
(0.1256555 -1.141233 -0.001425377)
(0.9569509 -1.169664 -0.006166328)
(1.020349 -1.999227 -0.007623899)