/*--------------------------------*- C++ -*----------------------------------*\
  =========                 |
  \\      /  F ield         | OpenFOAM: The Open Source CFD Toolbox
   \\    /   O peration     | Website:  https://openfoam.org
    \\  /    A nd           | Version:  7
     \\/     M anipulation  |
\*---------------------------------------------------------------------------*/
FoamFile
{
    version     2.0;
    format      ascii;
    class       volScalarField;
    location    "0.1";
    object      Ux;
}
// * * * * * * * * * * * * * * * * * * * * * * * * * * * * * * * * * * * * * //

dimensions      [0 1 -1 0 0 0 0];

internalField   nonuniform List<scalar> 
105056
(
0.4803051
0.4943816
0.4887243
0.492877
0.4936894
0.4684863
0.5053267
0.4960823
0.5089664
0.5032547
0.4526029
0.5064011
0.4982566
0.5106243
0.5034826
0.4468971
0.5060465
0.497743
0.510001
0.5041632
0.4468206
0.5083565
0.49818
0.5087757
0.5039548
0.4505169
0.5138011
0.4985927
0.5081858
0.5038341
0.4499107
0.5137816
0.4990411
0.5077598
0.5037051
0.4515833
0.5134325
0.4991753
0.5099505
0.5038371
0.4531017
0.5084703
0.4992205
0.5112421
0.5040221
0.453336
0.5081959
0.4992703
0.5117194
0.5041718
0.4533614
0.5082893
0.4994727
0.5117169
0.5042853
0.453269
0.508474
0.4996255
0.5119158
0.5043242
0.4526677
0.5085966
0.4998532
0.5118216
0.5042667
0.4526284
0.5088616
0.5000555
0.5122371
0.504242
0.451167
0.5087508
0.5000537
0.512198
0.5042162
0.454138
0.5094719
0.500321
0.5121965
0.5041709
0.4544645
0.5155495
0.5025257
0.5102026
0.5039991
0.45222
0.5168637
0.5029344
0.5050541
0.5037923
0.4523756
0.5208866
0.5034329
0.5048197
0.5037521
0.4481254
0.5254779
0.5050907
0.5042193
0.5036652
0.448454
0.5245952
0.5052266
0.504189
0.5036362
0.4482718
0.5214601
0.5038667
0.5041353
0.5035746
0.4642855
0.5180249
0.5022622
0.5040724
0.5035056
0.4741382
0.493097
0.4893863
0.4931151
0.4942017
0.4696026
0.4536426
0.5060589
0.4736507
0.4986265
0.4915405
0.505034
0.4354007
0.5182869
0.4699639
0.5036149
0.4903927
0.5193928
0.4251357
0.5123617
0.4643356
0.4974598
0.4879597
0.517379
0.4180745
0.5127256
0.4650254
0.4991011
0.487656
0.5205608
0.4116371
0.5114067
0.4631536
0.5009827
0.4880442
0.5220785
0.4067169
0.5069376
0.4617158
0.5007304
0.4877408
0.5226792
0.4041317
0.5042037
0.4603911
0.5002485
0.4874399
0.5228917
0.4030992
0.502255
0.4596308
0.4991431
0.4867748
0.5229187
0.4028657
0.5019603
0.4596795
0.4984016
0.4865847
0.5232876
0.4028374
0.5015249
0.459481
0.4983266
0.4865742
0.5230992
0.4034147
0.5009439
0.45933
0.4983758
0.4865949
0.5231636
0.4037911
0.5006299
0.459441
0.4987203
0.4866807
0.5229543
0.403571
0.500215
0.4599623
0.4990131
0.4867019
0.5238209
0.4068331
0.5006152
0.4608153
0.4995094
0.4868156
0.5235914
0.4026854
0.4995681
0.4601609
0.4993355
0.4868583
0.5225401
0.406505
0.4996986
0.4606538
0.4994449
0.4870067
0.5234878
0.4053845
0.5000319
0.4613729
0.5001663
0.4874397
0.5229986
0.4060285
0.4998622
0.4617431
0.5002893
0.4876733
0.5222165
0.4052063
0.5000052
0.4619051
0.5001583
0.4878942
0.5236076
0.4089979
0.5019138
0.4632662
0.5010032
0.4882818
0.5167513
0.4105243
0.5009108
0.4629721
0.4998577
0.4883327
0.5153031
0.4120368
0.501585
0.4624124
0.4999251
0.4878993
0.5231264
0.4113665
0.5009391
0.4616602
0.4989208
0.4876555
0.4665031
0.506046
0.4983849
0.5093979
0.5033671
0.5035871
0.4317281
0.5150745
0.4689592
0.5022403
0.490255
0.2715899
0.4450936
0.5416437
0.490186
0.5149026
0.4973838
0.4380916
0.4254604
0.5353948
0.4780019
0.5053986
0.4896041
0.4848028
0.416035
0.5324348
0.4752928
0.5116774
0.495546
0.474919
0.4083995
0.5260324
0.4646257
0.506379
0.4885164
0.4720098
0.4051125
0.5261056
0.4623351
0.5047424
0.4915188
0.4702903
0.4046412
0.5271259
0.4617084
0.505289
0.4904283
0.4696975
0.4064716
0.5270862
0.4614725
0.5043955
0.4908623
0.4688758
0.4060202
0.5272246
0.4615171
0.5043087
0.4904007
0.4680864
0.4051868
0.5273538
0.4612655
0.5043446
0.4904223
0.4679603
0.4044217
0.5269608
0.4607352
0.5040917
0.4900415
0.4681019
0.4023584
0.5265568
0.4604137
0.5039669
0.4901665
0.4681201
0.4003838
0.5258285
0.4594291
0.503757
0.4894487
0.4683634
0.400018
0.5252809
0.4593319
0.5036644
0.4898925
0.4669193
0.397667
0.5252685
0.4583496
0.5034822
0.4895796
0.4685093
0.39815
0.5241631
0.4579912
0.5030808
0.4896871
0.4648332
0.3951379
0.5240224
0.4574026
0.5028588
0.4892755
0.4631534
0.3959589
0.5239555
0.4580125
0.5030865
0.4897393
0.4622973
0.3959369
0.5242659
0.4576934
0.5032061
0.4886576
0.4597839
0.3970099
0.5241699
0.4595887
0.5040204
0.4900009
0.4571866
0.3987424
0.5246464
0.4594015
0.5039429
0.488759
0.4560149
0.3985993
0.5255641
0.461342
0.503694
0.4898657
0.4594639
0.401093
0.5266884
0.4621843
0.5042023
0.4894792
0.4565222
0.5252296
0.5039581
0.5153243
0.5049866
0.5218953
0.4224913
0.5072715
0.4627715
0.4971553
0.4876692
0.4043496
0.428264
0.5363782
0.4786126
0.51084
0.4912969
0.2386757
0.4619832
0.5529302
0.4858019
0.5100692
0.4926203
0.3204422
0.4405776
0.5468486
0.4745581
0.5046203
0.4898459
0.3989813
0.458744
0.5498209
0.4820751
0.5064592
0.4925786
0.4457698
0.4669703
0.556653
0.4863187
0.5120062
0.4956351
0.453377
0.4681975
0.5575977
0.4900355
0.5141155
0.4957625
0.4557494
0.4692954
0.5594139
0.4903849
0.5153647
0.4967384
0.4571634
0.4697048
0.5598155
0.4911595
0.5156681
0.4966845
0.4579137
0.4696935
0.5606874
0.4917058
0.516524
0.4966982
0.4583791
0.4698598
0.5617488
0.4915591
0.5173428
0.496664
0.4562047
0.4705396
0.5629038
0.4913407
0.5182276
0.496679
0.4511941
0.4721684
0.5641808
0.4919329
0.5196358
0.4973447
0.4469356
0.4716934
0.5651919
0.4908322
0.5193149
0.4968772
0.4438105
0.4726502
0.5669756
0.4906486
0.5202308
0.4969719
0.4406136
0.4727707
0.5673599
0.4905914
0.5194654
0.4963714
0.4377067
0.4744275
0.5685913
0.4910183
0.5210006
0.4968241
0.4397052
0.4734096
0.5679581
0.4902626
0.5199537
0.496152
0.4434308
0.4719154
0.5671283
0.4895014
0.519918
0.49637
0.4456362
0.4690563
0.5666901
0.4881802
0.5189284
0.4956589
0.446916
0.4711858
0.5659466
0.4903774
0.5192426
0.4966609
0.4454618
0.4677967
0.5665367
0.490652
0.5196469
0.4959737
0.442636
0.4668864
0.564204
0.4900689
0.5178915
0.4957137
0.4518903
0.522781
0.503611
0.5148342
0.5052497
0.5106434
0.4138326
0.5059346
0.4622247
0.4936324
0.4865906
0.4677136
0.4233223
0.5318623
0.4789236
0.5124725
0.4965002
0.4159328
0.4413888
0.5444442
0.4741733
0.4980954
0.4877852
0.3558231
0.4923892
0.5752243
0.5028238
0.5251756
0.5018355
0.5265453
0.4747017
0.5585419
0.4928773
0.5134285
0.4940912
0.5177678
0.4632414
0.5483637
0.4906995
0.5090357
0.4965653
0.51606
0.4624987
0.5427596
0.4886771
0.5083082
0.4957659
0.5159097
0.4704049
0.5460599
0.4943488
0.5103696
0.4971887
0.5182855
0.4682076
0.5444252
0.492806
0.5086767
0.4962445
0.5235052
0.4709348
0.5456018
0.4944775
0.5102021
0.4967277
0.5288737
0.4736928
0.5471034
0.4951936
0.5114822
0.4969255
0.5334394
0.4741132
0.5468697
0.494019
0.5124428
0.4967329
0.5374407
0.4738226
0.5477678
0.4915608
0.5113579
0.4959033
0.5409618
0.4744971
0.5486639
0.4903965
0.5124893
0.495639
0.5442738
0.4763832
0.5500656
0.4904583
0.5120674
0.4957848
0.5460422
0.4784736
0.5514382
0.4900371
0.5134982
0.4956622
0.5458373
0.4772926
0.5500664
0.4889784
0.5119697
0.495394
0.5448434
0.4774886
0.5494708
0.4888254
0.5124097
0.4951927
0.5437558
0.4753965
0.5484251
0.4869535
0.5114357
0.4945586
0.5425714
0.4777134
0.5497106
0.4888887
0.5120447
0.4956449
0.5387695
0.4713086
0.5472332
0.4853565
0.5111933
0.4927985
0.5313063
0.4759641
0.5487145
0.4892464
0.5149072
0.4959672
0.4062041
0.4617522
0.5399285
0.4825795
0.5105105
0.4936218
0.4539372
0.5153423
0.5005378
0.5038132
0.505823
0.5103929
0.4146734
0.5065127
0.4636849
0.4949173
0.4868664
0.4638566
0.4227261
0.5313346
0.4792366
0.5127976
0.4969012
0.3055045
0.4399012
0.5432146
0.4741271
0.498144
0.4877619
0.3099898
0.4897393
0.5734424
0.502138
0.525023
0.5016234
0.2242056
0.475664
0.5561475
0.4923724
0.5113406
0.49367
0.2210794
0.4674544
0.5458383
0.490678
0.5082255
0.4966501
0.2202567
0.469863
0.5446993
0.490251
0.5084616
0.4956055
0.2196889
0.4740267
0.5459551
0.4936612
0.5089706
0.4965343
0.2191258
0.4767922
0.5474111
0.4951183
0.5100455
0.4966245
0.2185247
0.4797076
0.5483573
0.4961048
0.5108999
0.4970074
0.2181494
0.4820556
0.5492098
0.497489
0.5119548
0.4963204
0.2180261
0.483206
0.5496037
0.4975874
0.5132668
0.4958311
0.2180813
0.4836296
0.5502163
0.4965679
0.5135448
0.4953468
0.2180178
0.4827782
0.5493427
0.4948917
0.5122148
0.4947146
0.2178882
0.4830563
0.5491138
0.4941769
0.5120429
0.4941135
0.2178462
0.4826922
0.5477914
0.4931522
0.510925
0.493462
0.2177765
0.4826592
0.5471265
0.4928748
0.5108242
0.4931032
0.2175004
0.4823675
0.5461393
0.4923862
0.5099429
0.4927914
0.2171311
0.4821534
0.5469605
0.4915964
0.5099585
0.4921197
0.2168075
0.4812787
0.546152
0.4920291
0.5087574
0.4926735
0.2164979
0.4811574
0.5475902
0.4910341
0.507727
0.4920905
0.2162221
0.4788573
0.5475375
0.4889096
0.5112228
0.4924017
0.5007523
0.4616084
0.5331347
0.4795208
0.5008724
0.4892927
0.4642533
0.5108286
0.4999832
0.503814
0.5055439
0.5176214
0.4202168
0.5064243
0.4618727
0.4953623
0.4874798
0.4573307
0.4264791
0.5369386
0.4781644
0.5102814
0.490403
0.4645302
0.4623883
0.5529038
0.48568
0.5098761
0.4926746
0.5068412
0.4354656
0.5475595
0.4756434
0.5051027
0.4901167
0.3619846
0.4549997
0.5508307
0.4838072
0.5068445
0.4932299
0.3010031
0.4652913
0.5576819
0.4868704
0.5122856
0.4959614
0.2959755
0.4667916
0.5583714
0.4891959
0.5142925
0.4961756
0.2952937
0.4674864
0.5602242
0.4903989
0.5154528
0.4969103
0.2951408
0.4681059
0.5611406
0.4908406
0.5161443
0.4971612
0.2946446
0.4676684
0.562001
0.4919128
0.5171149
0.49682
0.2939598
0.467534
0.5635233
0.4924607
0.5180448
0.4971181
0.2941141
0.467648
0.5648281
0.4927396
0.5186642
0.4974828
0.294894
0.4689402
0.5664664
0.4934883
0.5194701
0.4986443
0.2953061
0.4691959
0.5673317
0.4921393
0.5190407
0.4979589
0.2953809
0.4701738
0.569137
0.4925157
0.5189935
0.4987417
0.2963069
0.4713758
0.5693106
0.4923245
0.5185008
0.4983781
0.2970075
0.472955
0.5701432
0.4930422
0.5186075
0.4987753
0.2950679
0.4730729
0.5701691
0.4923652
0.5185031
0.4984196
0.290814
0.4713336
0.5695821
0.4922947
0.5184052
0.4991842
0.2881763
0.469579
0.5683691
0.4890561
0.5185692
0.4963604
0.2861922
0.4717253
0.5695258
0.4922339
0.5212788
0.5010844
0.2852524
0.4635406
0.5656238
0.4897963
0.5203196
0.4957324
0.2804755
0.4745375
0.5702959
0.4960372
0.5258339
0.5019105
0.4765333
0.5207346
0.4987532
0.5066272
0.5051516
0.5036985
0.4351147
0.5155007
0.4694157
0.5025796
0.4903826
0.4268971
0.4452006
0.5409644
0.4900633
0.5148042
0.4975109
0.4385705
0.4252986
0.5352219
0.4780099
0.5056025
0.4896097
0.4323366
0.4186894
0.5321141
0.475143
0.5112384
0.4954563
0.3517705
0.4117563
0.5250023
0.4647473
0.5055161
0.4883886
0.336925
0.4099268
0.5254193
0.4629809
0.5043196
0.491609
0.3266796
0.4100561
0.5265774
0.4628435
0.5051894
0.4903764
0.3223844
0.4106098
0.5265602
0.4622882
0.504337
0.4906148
0.3198932
0.410439
0.5264532
0.4619842
0.5044071
0.490101
0.3185928
0.410089
0.526206
0.461635
0.504314
0.4902261
0.3178458
0.4094931
0.5258862
0.4607962
0.503837
0.4898367
0.3174494
0.4097097
0.5248748
0.460138
0.5031131
0.4896363
0.3181206
0.4082376
0.524645
0.4590991
0.5032365
0.4891929
0.3198379
0.4074998
0.5234959
0.4585685
0.5021948
0.4892589
0.3233799
0.4048456
0.5237705
0.4580824
0.5022551
0.4893354
0.3262036
0.4041546
0.522812
0.4575786
0.5016638
0.488992
0.3291793
0.4026779
0.522794
0.4575499
0.5020177
0.4894743
0.3287
0.401712
0.5224896
0.45728
0.5018109
0.48918
0.3277205
0.4004421
0.5230648
0.4580639
0.5026227
0.4895154
0.3247921
0.4035665
0.5237279
0.4592557
0.5028491
0.4891726
0.3226635
0.4049737
0.5232004
0.4599137
0.503697
0.4885767
0.3229494
0.4036063
0.5245953
0.4616118
0.5027279
0.4893272
0.320613
0.4093584
0.525796
0.4642683
0.5005907
0.4874121
0.4821359
0.522208
0.4940757
0.5093125
0.5007467
0.4601357
0.4537674
0.5062034
0.4738464
0.4985358
0.4915674
0.3780456
0.4358717
0.518318
0.470074
0.5035863
0.4903371
0.4157566
0.4245046
0.5124248
0.4643153
0.4971844
0.4879641
0.3422537
0.4166314
0.5126032
0.4649998
0.4990505
0.4877415
0.3418869
0.4111383
0.5111991
0.4632286
0.5007709
0.4881037
0.3425884
0.4060635
0.5067049
0.4617715
0.500605
0.4877802
0.3422641
0.4037177
0.5038751
0.4603537
0.499982
0.4874612
0.3408065
0.4034939
0.5022103
0.4596396
0.4988032
0.4867951
0.3396422
0.4035386
0.5011028
0.4591117
0.4981174
0.486638
0.3393213
0.4023076
0.5008672
0.4592329
0.4983498
0.486702
0.3490575
0.4021981
0.5004507
0.4595464
0.4986172
0.4868325
0.3478398
0.4049919
0.5004562
0.460289
0.4989506
0.4869502
0.3643443
0.4019437
0.4989102
0.4597974
0.4991432
0.4869367
0.3469975
0.404207
0.4990249
0.4603207
0.4991823
0.4868854
0.3816479
0.4023141
0.4987556
0.4606425
0.4996074
0.4871945
0.3508735
0.4048742
0.498971
0.4612757
0.4997474
0.4874408
0.3499775
0.4046063
0.499116
0.4622467
0.5004498
0.4880464
0.3388598
0.4038763
0.4996414
0.4618328
0.500152
0.4879633
0.388254
0.4048445
0.5001304
0.463182
0.5005571
0.4881795
0.4150438
0.4086111
0.4990664
0.4621481
0.4999801
0.487985
0.3390995
0.4088698
0.5011453
0.4620305
0.5006904
0.4889952
0.3387742
0.405915
0.5012366
0.4609782
0.4996647
0.4870481
0.3397252
0.4068077
0.49978
0.4607031
0.4999891
0.4876476
0.5244887
0.5696877
0.5602517
0.5685088
0.5645757
0.497387
0.4891439
0.5270965
0.492766
0.5084162
0.5020508
0.4380322
0.4856731
0.5330777
0.4965602
0.513815
0.5037166
0.4207296
0.4733168
0.5396737
0.4948566
0.5159755
0.5050553
0.4199864
0.4664264
0.5455677
0.4926875
0.517622
0.5045677
0.4196339
0.466897
0.5466829
0.4952579
0.5199079
0.5043415
0.4193538
0.4677542
0.54242
0.5022081
0.5211031
0.5046655
0.4191465
0.4678274
0.5407225
0.5032853
0.5210846
0.5050134
0.4189248
0.4681104
0.5396081
0.5036758
0.5193996
0.5054732
0.4187873
0.4675612
0.5392782
0.503783
0.5188389
0.5048679
0.4186642
0.4676113
0.540874
0.5010823
0.5187391
0.5048541
0.4186232
0.4676716
0.5412324
0.4993522
0.5185667
0.5049549
0.4186523
0.4662202
0.5410154
0.499287
0.518524
0.5047992
0.4185656
0.4659763
0.5400168
0.5005801
0.5186682
0.5044972
0.4185486
0.4639353
0.539411
0.501862
0.5186468
0.5042349
0.4183167
0.4646963
0.5393643
0.5009512
0.5186522
0.5041302
0.4184041
0.4629719
0.5393912
0.5005806
0.5186032
0.5040958
0.4181867
0.4644849
0.5402915
0.4990068
0.5186371
0.5042624
0.4182335
0.4588934
0.5399886
0.4997267
0.5187134
0.5045483
0.417879
0.4574337
0.537826
0.5008315
0.5180982
0.5048128
0.4744344
0.4698791
0.5403166
0.5018207
0.5178729
0.5051117
0.4183067
0.4585724
0.5438271
0.494568
0.5180034
0.5042024
0.4861887
0.4620187
0.5422761
0.4952044
0.5177583
0.5038363
0.4836087
0.463202
0.5401079
0.5005582
0.5162547
0.5044406
0.5145018
0.512667
0.4334808
0.5275582
0.480157
0.5036232
0.4975563
0.4978559
0.4974098
0.5478604
0.4873858
0.4847512
0.4372637
0.5221642
0.4874654
0.5210582
0.4833477
0.4770244
0.4206514
0.5188745
0.4840252
0.5196521
0.4738493
0.4773631
0.4199702
0.5209422
0.4829609
0.5219236
0.4757965
0.4763709
0.4195418
0.5239202
0.483709
0.5230656
0.4770579
0.4753271
0.41929
0.5262003
0.4839949
0.523694
0.4759189
0.475365
0.4190822
0.5264925
0.4839624
0.522614
0.4743873
0.4757403
0.4189257
0.5257206
0.4835237
0.5215055
0.4742443
0.4770971
0.4188351
0.5252865
0.4834397
0.5211616
0.4780944
0.4773023
0.4187539
0.5247268
0.4837163
0.5212389
0.4728072
0.4773252
0.418685
0.5242511
0.4832889
0.5202962
0.4736542
0.4766714
0.4185237
0.5233498
0.4830215
0.5192319
0.472177
0.4775148
0.4184603
0.5221442
0.4829524
0.5188049
0.4759468
0.478553
0.418456
0.5202373
0.48413
0.5193142
0.47267
0.4759683
0.4184327
0.5188568
0.4836975
0.5186836
0.4768048
0.4753091
0.4183272
0.5189578
0.483331
0.5176225
0.4736158
0.4750263
0.4182704
0.517852
0.4830163
0.5161684
0.4739403
0.473905
0.4182342
0.5182393
0.4833283
0.5168469
0.4755529
0.4728077
0.4180481
0.5176641
0.4833937
0.5166876
0.4769361
0.4766607
0.4179425
0.5193096
0.422189
0.5085865
0.4739971
0.4730779
0.4770943
0.5325694
0.418248
0.5188902
0.4731693
0.4755271
0.4792602
0.5327899
0.417874
0.5192276
0.4752977
0.4846037
0.4757457
0.5297184
0.417891
0.5243799
0.4879394
0.493273
0.5054991
0.5044183
0.4945207
0.54999
0.4941265
0.4480304
0.5294585
0.4964973
0.48354
0.5162054
0.4726006
0.4208346
0.5268278
0.4882264
0.4197566
0.5194263
0.4651718
0.4785355
0.5373596
0.4804548
0.4170931
0.5217517
0.4693639
0.4785842
0.5447735
0.4765992
0.4175689
0.5215534
0.4834265
0.4788662
0.5194139
0.4776334
0.4202563
0.5204323
0.4970758
0.4837014
0.5170238
0.4945
0.4461333
0.5291814
0.5049371
0.4935731
0.5493902
0.4890309
0.4929603
0.5048816
0.5164101
0.4334744
0.527676
0.514505
0.5414097
0.5202252
0.5063859
0.5226195
0.5372376
0.5412688
0.5105187
0.4981785
0.5552674
0.5361577
0.5547859
0.495014
0.4981538
0.5443343
0.5387061
0.5487136
0.5003469
0.4972736
0.5489825
0.5368991
0.4965793
0.5457386
0.4975154
0.4974426
0.5476502
0.4804625
0.5033089
0.5222184
0.4873948
0.5209595
0.4876464
0.4842473
0.5189771
0.4839895
0.5200418
0.4823715
0.4772104
0.5211232
0.4829982
0.5219215
0.4748818
0.4771355
0.5240238
0.4837272
0.5231089
0.4762223
0.4762975
0.5265565
0.4838263
0.5236678
0.4783888
0.4755273
0.5269507
0.4838718
0.5226663
0.4765098
0.4754123
0.5263343
0.4832538
0.5213504
0.4764358
0.4769405
0.5231773
0.4834485
0.5202856
0.4716874
0.4794039
0.5220599
0.4836647
0.519781
0.4722734
0.4772324
0.519666
0.4834502
0.5190883
0.4741642
0.4783983
0.5204071
0.4830914
0.5182857
0.4733979
0.4773557
0.5197976
0.4813392
0.515801
0.4742947
0.4754988
0.5106076
0.4178618
0.5189534
0.4740419
0.4790675
0.5151867
0.429586
0.5164124
0.4787462
0.4804261
0.513936
0.4185617
0.5184782
0.4753937
0.4906918
0.5253694
0.4463049
0.5230013
0.5372798
0.5230534
0.5415401
0.5199545
0.5065229
0.555198
0.5361069
0.5696085
0.5446013
0.5104954
0.4980899
0.5442661
0.5388513
0.5598831
0.5547608
0.4948792
0.4990868
0.5491578
0.5369617
0.5686503
0.5492727
0.5006952
0.4973815
0.5458269
0.5646842
0.4966351
0.552391
0.4033775
0.5203014
0.4346921
0.5436053
0.3874785
0.559504
0.434303
0.5423853
0.3930185
0.5597533
0.4233953
0.542672
0.3893887
0.5598225
0.4213492
0.544519
0.3893982
0.560156
0.4206627
0.5458977
0.3886765
0.5605482
0.4210027
0.5469564
0.3875318
0.5604293
0.4211762
0.5479106
0.3861628
0.5607164
0.4229186
0.5476011
0.3853689
0.5600622
0.4211479
0.5461739
0.4343448
0.5590955
0.4223648
0.5484539
0.3849836
0.5598662
0.4214797
0.5482688
0.400319
0.5600625
0.4216563
0.5479085
0.3842933
0.5597489
0.4206129
0.5454205
0.4323866
0.5586017
0.4215824
0.5457424
0.4113481
0.5588094
0.4220699
0.5447043
0.4323109
0.5583813
0.4236546
0.5444615
0.4021666
0.5588827
0.4220232
0.5444472
0.4315994
0.5609934
0.4237457
0.5463746
0.4196001
0.5582098
0.4182085
0.5460024
0.4284535
0.5574692
0.420988
0.5490947
0.4016215
0.5476379
0.4091021
0.5500607
0.4171666
0.5450284
0.4122544
0.5459068
0.395063
0.5521432
0.4144383
0.5189239
0.5168544
0.5434052
0.5381383
0.5425291
0.5488456
0.543886
0.5400505
0.5454114
0.5422123
0.5544799
0.546903
0.5477696
0.5470081
0.5169278
0.526904
0.5231588
0.5162899
0.5260214
0.483247
0.5205361
0.4764515
0.4758886
0.5250372
0.4833635
0.5200696
0.4752746
0.4771279
0.5238154
0.4839007
0.5207197
0.4723507
0.4796048
0.5214376
0.4836035
0.5189538
0.4724196
0.4832843
0.5166153
0.4821853
0.514597
0.4712661
0.4820228
0.514321
0.4770258
0.496567
0.4697164
0.4742048
0.5391849
0.4797164
0.5348097
0.472517
0.4753638
0.482716
0.515633
0.491576
0.4521039
0.5163889
0.4146977
0.5386848
0.4370223
0.5299664
0.5189722
0.5418735
0.4374144
0.5387161
0.3968555
0.5593002
0.427525
0.5448941
0.3898521
0.5601121
0.4232637
0.545548
0.3923456
0.561155
0.4216468
0.5453559
0.3902978
0.560794
0.4212364
0.5456533
0.3895215
0.5605593
0.4205282
0.546045
0.3880928
0.5605101
0.4223216
0.5468668
0.3870355
0.5606629
0.4211355
0.5472319
0.3859273
0.5601728
0.4284982
0.5463548
0.3845783
0.5601997
0.4212691
0.5478515
0.3848493
0.5602871
0.4226427
0.5478202
0.3854235
0.5603165
0.4207545
0.5483946
0.3843135
0.5598338
0.4250259
0.5465592
0.3838193
0.5594248
0.4247147
0.5476318
0.3827811
0.5585015
0.4262369
0.5459401
0.3795699
0.5585922
0.4212362
0.5459738
0.40857
0.5606424
0.4249501
0.544011
0.3783124
0.5584943
0.423508
0.5449114
0.3890727
0.5570599
0.4215437
0.5457989
0.3781971
0.5512868
0.4073281
0.5494059
0.4095762
0.5473356
0.4062073
0.551852
0.3789056
0.5464585
0.4110002
0.5512488
0.3983031
0.5492062
0.5577423
0.383399
0.5568418
0.5182592
0.5317461
0.5471406
0.547548
0.5482977
0.544216
0.5449651
0.5432956
0.5437186
0.5482446
0.5460695
0.5510742
0.5392373
0.5323195
0.5163781
0.5137498
0.5267037
0.4601028
0.4847855
0.5152704
0.4927302
0.4598122
0.5146946
0.4145518
0.5381441
0.4325255
0.491205
0.5296966
0.4869314
0.5186309
0.4865035
0.5244331
0.5029074
0.523658
0.5004219
0.5405655
0.5086544
0.5288979
0.4953108
0.5275015
0.4987721
0.5351872
0.4947002
0.539187
0.500664
0.5272548
0.4927657
0.5298115
0.5026581
0.5336956
0.4994333
0.5426471
0.5065791
0.5299187
0.4958447
0.5287807
0.5006716
0.5359925
0.4973983
0.5406229
0.5035828
0.5285164
0.494427
0.5349162
0.552281
0.4043609
0.5203473
0.4346854
0.5420157
0.4374939
0.5386213
0.3971074
0.5435688
0.3879628
0.5593693
0.4345136
0.5593334
0.4283519
0.5451803
0.3902827
0.5425089
0.3933505
0.5596249
0.4236771
0.560611
0.4233225
0.5453696
0.392472
0.5427583
0.3898103
0.5601913
0.4216048
0.5612581
0.4219415
0.5453764
0.3904971
0.5444526
0.389908
0.5601884
0.4213049
0.5608704
0.4215055
0.545504
0.3897512
0.5461367
0.3893498
0.5607983
0.4216844
0.5606271
0.4202662
0.5457247
0.3882488
0.5467842
0.3881894
0.560343
0.4211007
0.5603144
0.4202333
0.5464106
0.3874144
0.5478171
0.3875767
0.5605703
0.4215323
0.5600667
0.4186059
0.546813
0.3869627
0.5460905
0.3855896
0.5590702
0.4249843
0.5599543
0.423732
0.547391
0.3870085
0.5474493
0.4156109
0.5591079
0.4224584
0.5597464
0.4211243
0.5481301
0.3839919
0.5478952
0.3827688
0.5591895
0.3877499
0.5609425
0.4313818
0.5432549
0.4157706
0.5453498
0.4165101
0.5568507
0.4224411
0.558746
0.4224165
0.5463989
0.3813241
0.5457374
0.4361376
0.5595134
0.4197701
0.5589509
0.4172355
0.5485431
0.3823396
0.5498768
0.373392
0.551656
0.41081
0.5459249
0.4098907
0.5545788
0.377729
0.5551423
0.3780954
0.5508487
0.4063403
0.5574477
0.3807556
0.5487673
0.3741751
0.5465173
0.4670718
0.4201115
0.5518313
0.4981367
0.4758703
0.4811369
0.5128987
0.5324186
0.5435989
0.5420746
0.4912038
0.4322231
0.5217573
0.5012154
0.4338972
0.505934
0.4822573
0.5038456
0.4309271
0.5096082
0.4823947
0.504562
0.4300197
0.5079231
0.4822365
0.5057046
0.4292028
0.508132
0.4818177
0.5062772
0.4286728
0.5080445
0.4817342
0.5065636
0.4283277
0.507961
0.4806116
0.5066816
0.4281571
0.5079088
0.4802582
0.5066793
0.4278723
0.5080553
0.4783964
0.5066335
0.4280999
0.5078459
0.4790154
0.5065639
0.4507193
0.507135
0.4769163
0.5067241
0.428208
0.5077051
0.4799386
0.5068308
0.4315755
0.5074882
0.4782663
0.5067276
0.4283828
0.5078045
0.4791994
0.5071681
0.4543844
0.5068274
0.4782646
0.5076423
0.4399762
0.5067871
0.4785689
0.5067091
0.4561978
0.5067058
0.476203
0.5078944
0.438122
0.5063771
0.4787999
0.5079414
0.460976
0.5065189
0.4763463
0.508212
0.4505016
0.5059877
0.4793645
0.5067893
0.4620319
0.5064251
0.47537
0.5057157
0.4448092
0.5051873
0.4800628
0.5056208
0.4574273
0.50505
0.4777111
0.5058208
0.4404315
0.505835
0.4788512
0.4720843
0.5107603
0.5162826
0.4793765
0.5143504
0.5239685
0.505689
0.5297669
0.515639
0.4761885
0.5253114
0.5083624
0.5052177
0.4712651
0.4733361
0.517531
0.4953862
0.5177257
0.5048183
0.4848217
0.5039981
0.4513929
0.5150886
0.4761715
0.5091668
0.4807467
0.5007806
0.4312537
0.5072787
0.4813411
0.5014562
0.4304473
0.5078273
0.4820914
0.5026053
0.4293086
0.5079155
0.4821854
0.5035469
0.4287698
0.5079749
0.4823144
0.5041339
0.4283973
0.5079973
0.4821947
0.5045351
0.4282051
0.5079681
0.4818698
0.504873
0.4280274
0.5079921
0.4824807
0.5050229
0.4279693
0.5063043
0.4837317
0.5065867
0.4288766
0.5077847
0.4821271
0.5052437
0.4279566
0.507543
0.4824802
0.5059022
0.4279661
0.5080885
0.4823288
0.5054312
0.4277441
0.5067096
0.4839203
0.5066236
0.4286787
0.5069504
0.4829597
0.5062199
0.4281061
0.5059196
0.4832689
0.5066778
0.4287196
0.5061532
0.4825214
0.505713
0.428214
0.5063363
0.4848248
0.5061171
0.4285913
0.505685
0.4831852
0.5061405
0.4283251
0.5050746
0.484256
0.5057116
0.4287174
0.5047161
0.4817846
0.5055408
0.4284344
0.5061808
0.4822355
0.5056383
0.42806
0.5069604
0.481135
0.504868
0.4273104
0.5054699
0.4842723
0.5079367
0.4341892
0.4713601
0.5094549
0.4944379
0.4755089
0.4716512
0.5134067
0.4927965
0.5068983
0.5117397
0.4714688
0.4698937
0.5147188
0.5220124
0.4745001
0.4705856
0.5142892
0.4326153
0.5203583
0.505034
0.4851815
0.5038846
0.4514564
0.4909087
0.4876729
0.4971973
0.4862916
0.4910815
0.4881492
0.496457
0.486884
0.4982195
0.4936354
0.4926724
0.5012336
0.5012266
0.4342055
0.4823315
0.5061132
0.5091293
0.4807604
0.5007853
0.4313254
0.506315
0.4288305
0.4817413
0.5080265
0.5079454
0.4823107
0.5040766
0.4284774
0.5065907
0.4284476
0.4803482
0.5079622
0.5079696
0.4824632
0.5044102
0.4282641
0.5066271
0.4283784
0.4806062
0.5078444
0.5080604
0.4820725
0.5047455
0.4280914
0.5078595
0.4416496
0.4795251
0.5068008
0.5079389
0.4821892
0.5051616
0.4277476
0.5097774
0.4289564
0.5058526
0.4857864
0.5067763
0.4817783
0.5062216
0.4279079
0.506144
0.431294
0.5069971
0.4791508
0.507738
0.4808997
0.5074669
0.4272185
0.506095
0.4276496
0.4804757
0.5085183
0.5531686
0.4040303
0.5586316
0.3736093
0.4757578
0.5086474
0.505433
0.4472447
0.4369126
0.5080249
0.4330046
0.5345042
0.4973431
0.4543039
0.5086346
0.5039204
0.5080728
0.4700905
0.5089378
0.4836345
0.5019584
0.4321648
0.5083825
0.4813844
0.5008575
0.4308319
0.5075055
0.4816303
0.5024207
0.4298071
0.507652
0.4822264
0.5033226
0.4290705
0.5075449
0.4823445
0.5038909
0.4286036
0.5075321
0.482491
0.5040482
0.4283105
0.5076184
0.4824425
0.5043016
0.4281176
0.507612
0.482669
0.5045223
0.427885
0.5074266
0.4828954
0.5047358
0.4280343
0.5059926
0.4829753
0.5047561
0.4290845
0.507694
0.4825563
0.5048548
0.4278443
0.5072958
0.4825001
0.5048668
0.4277009
0.5075659
0.4826078
0.5051041
0.4277788
0.5063781
0.4823555
0.5049831
0.4283769
0.5071544
0.4822587
0.5053135
0.4280344
0.50527
0.4821198
0.5055097
0.4285987
0.5071109
0.4821945
0.5054061
0.4280336
0.5048714
0.4816218
0.5051543
0.4295628
0.5067746
0.4816033
0.5050716
0.4282492
0.504022
0.4828237
0.5055872
0.428611
0.5062782
0.4829095
0.5065221
0.4280691
0.5051141
0.4827975
0.5071132
0.4286972
0.5067002
0.482895
0.5070094
0.4279078
0.5270176
0.5169922
0.4816331
0.5117186
0.4694133
0.5134297
0.4703606
0.4921559
0.5145178
0.4687826
0.5045916
0.4721445
0.5282597
0.5102794
0.5036565
0.4869461
0.5086331
0.4670133
0.3877284
0.5594951
0.425473
0.5503008
0.3855209
0.4225601
0.5498417
0.5601258
0.4232812
0.5495801
0.3853155
0.5610332
0.3821032
0.5592004
0.4290985
0.5508358
0.4243521
0.5489303
0.379163
0.561977
0.3780506
0.5582116
0.409653
0.5498945
0.4279506
0.3839879
0.5577215
0.5460172
0.3786047
0.4179191
0.5473033
0.5558298
0.4033268
0.3799843
0.5551184
0.5487325
0.3750747
0.3717115
0.549703
0.5467618
0.4118154
0.5423916
0.4244811
0.5491714
0.5044801
0.4902536
0.5041405
0.4870698
0.4690918
0.5108324
0.5014978
0.4317975
0.5097306
0.4810396
0.5047024
0.4305784
0.5076722
0.4830882
0.5051593
0.429524
0.5081781
0.4821918
0.5057171
0.42895
0.5080236
0.4818389
0.5063034
0.4285383
0.5079145
0.4813427
0.5064266
0.428382
0.5078094
0.4810056
0.5065941
0.4282429
0.5077654
0.4811062
0.5067607
0.4281199
0.5076956
0.4803266
0.5067231
0.4285427
0.5069149
0.4812402
0.5069665
0.4284694
0.5065232
0.4812888
0.5068255
0.4282036
0.5073655
0.481003
0.5069708
0.4281292
0.507384
0.4805389
0.5070874
0.4285164
0.5069145
0.4800652
0.5072306
0.4295396
0.5065136
0.4783144
0.5070476
0.4289068
0.5065206
0.4801694
0.5074535
0.439692
0.5058335
0.4766954
0.5077014
0.4301939
0.506532
0.4781369
0.5077979
0.4349161
0.5055897
0.4764907
0.5072681
0.4295146
0.5058707
0.479659
0.5064215
0.4475154
0.5061948
0.4770401
0.505138
0.4298848
0.5071473
0.4804434
0.5062069
0.4418889
0.5082158
0.4774165
0.5054275
0.4318417
0.5075142
0.4762691
0.5078845
0.4794704
0.521663
0.4744157
0.5122319
0.4755725
0.5231739
0.5117724
0.4750324
0.5082156
0.5061602
0.5168094
0.4811045
0.5068832
0.5281638
0.5045675
0.5131801
0.5121929
0.5031549
0.4645581
0.5035961
0.4833146
0.4913739
0.4867104
0.487204
0.4934971
0.494155
0.4879927
0.494897
0.488602
0.5089741
0.4836081
0.4321583
0.5019371
0.5015245
0.4317944
0.5097353
0.4810073
0.5075199
0.4824054
0.4286928
0.5038198
0.5063021
0.4286609
0.5079049
0.4813214
0.5075406
0.4825698
0.4283387
0.504056
0.5064625
0.4284018
0.5078363
0.4805353
0.5075574
0.4823953
0.4281962
0.5042561
0.506521
0.4283267
0.5077067
0.4810943
0.5073515
0.4828933
0.4281128
0.5050359
0.507086
0.4286342
0.507087
0.4803272
0.5099857
0.4313837
0.4873467
0.5034257
0.5044278
0.4782216
0.5100015
0.4301157
0.5073122
0.4303694
0.5060123
0.4801218
0.5075073
0.4817796
0.4272305
0.5050839
0.5057825
0.4281405
0.5083251
0.4816358
0.5067607
0.4807156
0.4410297
0.5067565
0.5088428
0.4785592
0.508891
0.4840644
0.5098111
0.4523582
0.5068913
0.4788525
0.5432861
0.4527489
0.4283123
0.4328329
0.419088
0.4725734
0.541445
0.5043969
0.5185354
0.5021039
0.5297336
0.4860169
0.490483
0.5184294
0.5003583
0.5404025
0.5084545
0.5285397
0.4948824
0.5391427
0.5008908
0.5273991
0.4994858
0.5428543
0.5067903
0.5301171
0.4974385
0.540675
0.5036466
0.5285741
0.4859978
0.4764457
0.4949312
0.4702714
0.488584
0.4773589
0.4958509
0.4703152
0.4924142
0.4803983
0.4813397
0.5005617
0.4857657
0.4868401
0.4940725
0.4775583
0.5007107
0.495926
0.4944146
0.502953
0.4889105
0.4861867
0.4941532
0.4845963
0.4957576
0.4912638
0.4902313
0.4987005
0.5038566
0.4309967
0.4823108
0.5095773
0.5078128
0.4820157
0.5025931
0.4293562
0.5056536
0.4292316
0.4817866
0.5081
0.5078686
0.4824291
0.5034316
0.4288342
0.4861129
0.5242221
0.502751
0.5234592
0.4950833
0.5273551
0.4993702
0.5348487
0.492903
0.5299982
0.5028359
0.5338788
0.4958946
0.5288335
0.5007465
0.5361685
0.4944525
0.5349694
0.4200857
0.3878504
0.5598639
0.548207
0.3871767
0.4221732
0.5494574
0.5603428
0.4217764
0.3868854
0.5614084
0.5503986
0.4830177
0.4639082
0.5060517
0.5066628
0.4287742
0.5083258
0.4813138
0.5047533
0.4753251
0.4842942
0.4536685
0.4714088
0.4354136
0.507021
0.5325636