/*--------------------------------*- C++ -*----------------------------------*\
  =========                 |
  \\      /  F ield         | OpenFOAM: The Open Source CFD Toolbox
   \\    /   O peration     | Website:  https://openfoam.org
    \\  /    A nd           | Version:  7
     \\/     M anipulation  |
\*---------------------------------------------------------------------------*/
FoamFile
{
    version     2.0;
    format      ascii;
    class       volScalarField;
    location    "0.1";
    object      Ux;
}
// * * * * * * * * * * * * * * * * * * * * * * * * * * * * * * * * * * * * * //

dimensions      [0 1 -1 0 0 0 0];

internalField   nonuniform List<scalar> 
82743
(
0.8064151
0.6218539
0.5416983
0.4625999
0.3977208
0.3066876
0.235751
0.1704281
0.1289607
0.9163408
0.7805695
0.7139956
0.6638971
0.5948141
0.4531424
0.3487164
0.2513869
0.1884059
0.9678698
0.8710562
0.8370806
0.8537199
0.8058791
0.5961175
0.4338842
0.2918074
0.2161406
1.004921
0.9322275
0.9367688
1.072535
1.12104
0.7819865
0.4792408
0.2747593
0.1974715
1.02756
0.9651007
1.033309
1.289462
1.652119
1.023881
0.4193044
0.1442189
0.09827658
1.040339
0.9863858
1.078025
1.170753
2.25344
0.9493291
0.4723158
-0.2330841
0.07072853
0.9638977
0.8017334
0.7527312
0.6476627
0.2292889
0.001443193
0.9254305
0.6945771
0.5654356
0.3630126
0.0499713
0.0706558
0.8865854
0.6359074
0.4810502
0.2600801
0.0356657
0.07618751
0.8726978
0.6089311
0.4380476
0.2263982
0.03394011
0.07299432
0.8683883
0.618818
0.4440382
0.2354681
0.01748522
0.0697226
0.8816206
0.6633347
0.489692
0.2706655
0.0155242
-0.006228977
0.9100762
0.7237667
0.5822726
0.3786805
0.022993
0.07802887
0.9381392
0.773889
0.7173341
0.5695636
0.4068923
1.040846
1.437504
2.345463
1.183493
0.9706379
0.8566385
0.8346828
0.8152463
0.9666321
1.123895
1.331675
1.302755
1.036927
0.999129
0.9059793
0.9145147
0.9015246
0.9843671
1.065272
1.176483
1.147832
0.9981557
1.011124
0.938585
0.9480587
0.9279588
0.9863132
1.016584
1.066388
1.039241
0.9498375
1.020052
0.9575854
0.9656799
0.9446029
0.9763593
0.9827289
0.9996359
0.9709667
0.9116572
0.6555695
0.4139223
0.3295508
0.2358706
0.1972205
0.147242
0.1117325
0.0783556
0.05763582
0.9648432
0.8017929
0.6990248
0.549436
0.4826124
0.4092295
0.3130868
0.242951
0.176346
0.133569
0.9069066
0.9001595
0.8202034
0.7217261
0.6781288
0.6069848
0.4597327
0.3547297
0.251275
0.1899004
0.938321
0.9411903
0.9090227
0.852501
0.873391
0.8148264
0.5951285
0.4330855
0.2907906
0.2227487
0.9256274
0.9815307
0.9837486
0.9687025
1.110214
1.120456
0.7557704
0.4887375
0.2797735
0.1965492
0.9321012
1.000166
1.025847
1.056445
1.316426
1.639625
1.12618
0.462999
0.1283804
0.120294
0.9312714
1.006212
1.01264
1.074115
1.247495
2.243859
1.232415
0.4364666
-0.21039
0.08119537
0.9303146
0.9308665
0.8154708
0.7551227
0.709674
0.2618328
0.06307603
0.9294962
0.883897
0.7164697
0.5493499
0.3428466
0.07789613
0.9266846
0.8463599
0.6633919
0.4568284
0.246083
0.06410589
0.9269971
0.8332176
0.6350958
0.417845
0.1947932
0.05088373
0.9284973
0.8299507
0.6353359
0.4172896
0.1991472
0.07601026
0.9309997
0.842858
0.6597179
0.4486416
0.1883295
0.169272
0.933918
0.872758
0.705049
0.5521927
0.3245755
0.3424675
0.9345271
0.9130379
0.8053758
0.7217033
0.5885948
0.4848257
1.195135
1.600155
3.119051
1.257998
0.9369039
0.9422409
0.8889162
0.8465508
0.8200911
0.961879
1.132584
1.363399
1.3246
1.063162
0.9382883
0.971409
0.9347285
0.9271685
0.9124972
0.9845499
1.067287
1.186515
1.146328
0.9923838
0.9390622
0.9860616
0.963916
0.9599232
0.9402806
0.9904148
1.021183
1.070756
1.04582
0.9554302
0.9391944
0.9969562
0.9803891
0.9842008
0.963203
0.984066
0.988114
1.002992
0.9738131
0.9128059
0.5996851
0.3807779
0.3322928
0.2333509
0.2109892
0.1464785
0.1136226
0.08164745
0.05876716
1.096535
0.7673535
0.6393254
0.5568076
0.4771997
0.4306856
0.3232923
0.2549646
0.1835163
0.1377016
0.892533
0.9050334
0.7251679
0.7121636
0.6489645
0.5975943
0.4493907
0.3523696
0.2492883
0.1907965
0.8840909
0.9292406
0.8388635
0.8424684
0.8563038
0.8128218
0.5935689
0.4333248
0.2880292
0.22015
0.8734775
0.96749
0.8924916
0.9388489
1.076509
1.113177
0.7516949
0.4930356
0.2762804
0.1944529
0.940906
0.9992842
0.9209084
1.030648
1.293208
1.630778
1.112345
0.4802302
0.1409968
0.1268514
0.9470171
0.9933353
0.9531245
1.05442
1.233135
2.260154
1.369289
0.4717081
-0.2220738
0.08333889
0.9109027
0.9536111
0.7424287
0.7676113
0.7123584
0.355914
0.04022011
0.9072674
0.9096084
0.6330328
0.548877
0.2590423
0.06236572
0.8962028
0.8726099
0.5849967
0.4373303
0.1273425
0.0007220722
0.06606634
0.8940378
0.8601682
0.545513
0.4353227
0.08496584
-0.0310156
0.06636913
0.8924346
0.8582822
0.549265
0.4479591
0.1169718
-0.03733962
0.1194731
0.8906066
0.866093
0.5957748
0.4511071
0.2219491
0.2389651
0.8804442
0.892397
0.6700558
0.5732837
0.3382212
0.4950568
0.8530835
0.9295516
0.7324398
0.7146766
0.5871144
0.4922024
1.188746
1.606508
3.220058
1.294041
0.9125826
0.9608597
0.8019405
0.830615
0.8006907
0.97035
1.13774
1.374501
1.340316
1.059702
0.8909568
0.9850022
0.8551494
0.9123632
0.8860773
0.9743665
1.062834
1.173995
1.146808
1.010324
0.9103815
0.9951455
0.886978
0.9414469
0.9097567
0.9830328
1.01366
1.06688
1.041385
0.9514885
0.9095998
1.002696
0.9050028
0.9583954
0.9283875
0.9703002
0.9778564
0.9970794
0.9708807
0.9135742
0.595399
0.3710232
0.3265077
0.2395079
0.1987651
0.1450757
0.1103396
0.0791814
0.05877185
1.122445
0.7957022
0.645542
0.5576152
0.4826435
0.4214168
0.3223504
0.2506474
0.1815081
0.1372202
0.8830511
0.9251155
0.7633439
0.7353288
0.6631321
0.6033284
0.4505522
0.3533499
0.2494834
0.1900205
0.8885449
0.9439152
0.8691362
0.8519532
0.8699754
0.8158056
0.5924735
0.4342788
0.2896922
0.2222158
0.9279038
0.9930932
0.9305573
0.9541627
1.090604
1.115518
0.7472771
0.493554
0.2756706
0.1957912
0.9190629
1.002247
0.9616263
1.040814
1.311412
1.624488
1.163319
0.4904596
0.14288
0.131728
0.9325417
1.008346
0.969491
1.064669
1.249757
2.226655
1.457421
0.4871812
-0.2164458
0.08372153
0.9025233
0.9595151
0.758744
0.7737209
0.7041412
0.3878877
0.02840195
0.8938563
0.9181832
0.6562251
0.5576031
0.2524297
0.04410375
0.8847694
0.8821969
0.6137456
0.438342
0.1600659
-9.210737e-05
0.05470511
0.8808872
0.8689551
0.5726758
0.4354072
0.08596719
-0.07501536
0.08604364
0.880795
0.8667716
0.5766094
0.4507871
0.1080475
-0.07514026
0.1518535
0.8856853
0.8725463
0.6038814
0.4377936
0.2476869
0.2577888
0.8918707
0.898018
0.6402951
0.5584647
0.3387475
0.5690733
0.9084925
0.9308073
0.7484957
0.7130844
0.5866894
0.4984448
1.18999
1.616005
3.206865
1.287933
0.9134969
0.960199
0.8304768
0.8364579
0.8039495
0.9724613
1.143441
1.371228
1.341574
1.064265
0.9228632
0.9830124
0.8818968
0.9200295
0.892632
0.9776125
1.066046
1.174631
1.145983
1.006446
0.9213533
0.9936735
0.9101521
0.9524013
0.9187273
0.9875719
1.018195
1.068188
1.042355
0.9522686
0.9215813
1.003448
0.9287122
0.9761677
0.9401579
0.9753415
0.9812911
0.9989314
0.9718325
0.9137322
0.6078765
0.3847406
0.3466226
0.2367773
0.21359
0.1473871
0.113673
0.08077778
0.06023945
1.102858
0.8248314
0.6575652
0.5706865
0.476738
0.4288941
0.320579
0.2505391
0.180913
0.1370958
0.8997621
0.9401486
0.7331527
0.7262411
0.6475231
0.5996264
0.445095
0.3513565
0.248199
0.1903444
0.8983865
0.9533271
0.849034
0.8540622
0.8621227
0.812692
0.5876748
0.4339706
0.2888331
0.2213379
0.8937987
0.9968118
0.9020431
0.9459975
1.074915
1.108875
0.7417132
0.4929769
0.2740869
0.1919442
0.9668203
1.025273
0.9324729
1.036778
1.30302
1.620585
1.158886
0.4904691
0.1417437
0.1265536
0.9708365
1.024149
0.9649949
1.065548
1.237758
2.210568
1.465674
0.4839116
-0.2286163
0.08213802
0.9317957
0.9803543
0.7514103
0.7836484
0.6982958
0.3463123
0.02705782
0.9296286
0.9362661
0.6463417
0.560707
0.241588
0.04588313
0.9185629
0.8984891
0.601809
0.4415431
0.1539381
0.0008224962
0.05855797
0.9168546
0.8840536
0.5576142
0.4399442
0.08428811
-0.06919378
0.09891707
0.9172166
0.8824035
0.5590868
0.4556731
0.1059637
-0.06324055
0.1639063
0.9204002
0.8883846
0.5998015
0.4397006
0.250225
0.2672001
0.9099233
0.9162469
0.6718973
0.5731784
0.3424022
0.5596129
0.8879524
0.9581225
0.7515935
0.7195037
0.5838544
0.4989019
1.190346
1.617298
3.210214
1.290662
0.9242693
0.9843049
0.8116537
0.8357503
0.800774
0.974036
1.143293
1.370306
1.341201
1.064797
0.9240326
1.008146
0.865307
0.9176685
0.8831896
0.9741105
1.063333
1.172528
1.144482
1.007632
0.905936
1.017271
0.891318
0.9428384
0.9055969
0.9833596
1.014354
1.066257
1.040785
0.9518018
0.9328284
1.024208
0.9125589
0.9625814
0.9259139
0.9688441
0.9761943
0.9957551
0.969938
0.9131189
0.6117377
0.3648459
0.3319246
0.2387003
0.2000779
0.1451636
0.1103956
0.07913971
0.05894785
1.050013
0.7737617
0.6295713
0.5455986
0.4727932
0.4169635
0.3198468
0.249276
0.180459
0.1370605
0.9072761
0.9425807
0.7455165
0.7295025
0.6505782
0.599103
0.4480437
0.3520627
0.2485182
0.1900711
0.9171064
0.9624406
0.8598952
0.8518943
0.8646824
0.8161054
0.5955281
0.434771
0.2893971
0.2223308
0.9528859
1.006709
0.9127166
0.9470356
1.088187
1.113491
0.7521899
0.4934971
0.2737419
0.1923453
0.9464004
1.014251
0.9373054
1.034641
1.289426
1.612374
1.127095
0.4813193
0.1381648
0.1256555
0.9569509
1.020349
0.9615907
1.065232
1.235128
2.252924
1.320918
0.4638651
-0.239423
0.08144211
0.9248165
0.9772826
0.7477648
0.7818616
0.702598
0.4026506
0.02985709
0.9195142
0.935989
0.6484972
0.5597844
0.2440143
0.04513816
0.9098717
0.8994042
0.6037117
0.4386942
0.160349
0.003641975
0.06003645
0.9088682
0.8851164
0.5609983
0.4369787
0.08941118
-0.06255284
0.1108181
0.9099699
0.883752
0.5614284
0.4532212
0.1049632
-0.05886747
0.1688044
0.9181992
0.8908371
0.6021468
0.440645
0.2558496
0.2651241
0.9083705
0.9161044
0.6715369
0.5736441
0.3495443
0.5512575
0.8709855
0.9591059
0.7510208
0.7191811
0.5852981
0.4925775
1.191284
1.619759
3.216007
1.291013
0.9256993
0.9858375
0.8128615
0.8358185
0.8014139
0.9743308
1.144062
1.370308
1.341674
1.064866
0.9028043
1.009262
0.8636653
0.9170408
0.883203
0.974213
1.063688
1.172401
1.144635
1.007179
0.9174926
1.014234
0.8941063
0.9422698
0.9060914
0.9837266
1.014968
1.066421
1.041145
0.9517352
0.9367897
1.022852
0.9165187
0.9616565
0.9262141
0.9690927
0.9765808
0.9959756
0.9701945
0.9132476
0.6081153
0.3827174
0.3462138
0.2369458
0.2118851
0.1470433
0.1135147
0.0805763
0.06028515
1.072539
0.8027144
0.6520492
0.5708972
0.4759155
0.4279548
0.3205498
0.2507576
0.1810893
0.1373384
0.9120115
0.9434741
0.7396492
0.7295761
0.648084
0.6006336
0.445954
0.3519849
0.2485438
0.1905185
0.8982796
0.9534365
0.8517987
0.8548814
0.8619718
0.8133494
0.5905461
0.4346089
0.2897981
0.2221671
0.8933105
0.9985624
0.9017498
0.948391
1.080282
1.107479
0.7439164
0.4928078
0.2753773
0.195851
0.9665322
1.027999
0.9317795
1.040745
1.301053
1.611324
1.160224
0.4915695
0.1473592
0.1323275
0.971368
1.028537
0.9722437
1.073027
1.240226
2.265136
1.536998
0.5036281
-0.214975
0.08110761
0.9320863
0.9837168
0.7592597
0.7880442
0.7076731
0.4832147
0.02775335
0.9279686
0.9397333
0.6557347
0.567505
0.2406031
0.04312204
0.9114273
0.9017238
0.6105829
0.4479985
0.1520537
-0.001415479
0.0546201
0.9055021
0.8868363
0.5702476
0.4444025
0.0809893
-0.07629655
0.08656793
0.9040959
0.8769184
0.5729334
0.4579071
0.1055269
-0.07588753
0.1526945
0.8999437
0.8761391
0.6028338
0.4419888
0.2535088
0.2671278
0.9006869
0.8984263
0.6451168
0.5606746
0.3379013
0.5628501
0.9116803
0.9321969
0.7489765
0.7148285
0.586879
0.4996587
1.191119
1.620557
3.217673
1.285404
0.9146389
0.9627434
0.8291978
0.8377091
0.8043027
0.9732848
1.145422
1.370845
1.342151
1.065175
0.9146453
0.9847305
0.8803904
0.9209252
0.8924357
0.9772206
1.066206
1.173354
1.145846
1.008182
0.9024997
0.9964224
0.9063077
0.95301
0.9185744
0.9881176
1.018436
1.067682
1.042125
0.9521489
0.9209937
1.005956
0.9259112
0.9754119
0.9388718
0.9755316
0.9807681
0.9978544
0.9715189
0.913971
0.6413035
0.377457
0.3249777
0.2375048
0.1968568
0.1418505
0.1095091
0.07508747
0.05785513
1.090873
0.8295759
0.6522827
0.5533559
0.4791501
0.4165886
0.3183164
0.2491828
0.1767724
0.1364899
0.8824385
0.9200484
0.7578156
0.7221988
0.6555481
0.5959514
0.4488753
0.351893
0.2483545
0.189326
0.8947782
0.933722
0.8580788
0.8430402
0.8610274
0.8152626
0.5959918
0.434863
0.2870819
0.222022
0.9379604
0.9862629
0.9292701
0.9514493
1.089164
1.114366
0.7573104
0.4971671
0.2757924
0.1953009
0.9282377
0.9944796
0.960892
1.041715
1.293074
1.616758
1.156267
0.4945377
0.1452765
0.1302455
0.9356778
0.997819
0.9582016
1.062935
1.240444
2.295477
1.485287
0.5027539
-0.2140217
0.08319248
0.9046471
0.9498125
0.7498329
0.7727768
0.7084031
0.477563
0.04521694
0.8989399
0.9080674
0.6439231
0.5512104
0.2379178
0.06275997
0.8954702
0.871731
0.5964488
0.437134
0.1301292
-0.001091136
0.06311425
0.9053267
0.860793
0.557234
0.4365473
0.08738733
-0.03464935
0.05594623
0.9012847
0.8549632
0.555087
0.4474483
0.1175554
-0.04466132
0.1061408
0.9025858
0.8697907
0.5999626
0.4480336
0.2605176
0.2457613
0.8779076
0.8911705
0.6710263
0.5719554
0.3455431
0.603489
0.8454694
0.9277834
0.7366975
0.7156512
0.5897985
0.4997214
1.192199
1.623558
3.219711
1.278449
0.9128117
0.9623738
0.8066597
0.8318948
0.8029093
0.9713476
1.14236
1.369656
1.343783
1.068714
0.8675299
0.9737672
0.8501459
0.9110194
0.8862402
0.973962
1.063566
1.171835
1.147149
1.010115
0.9214116
0.9951743
0.889209
0.941082
0.9112418
0.9841994
1.01558
1.066478
1.042488
0.9529931
0.8702488
0.9947702
0.9011732
0.9533488
0.927223
0.9705632
0.9782774
0.9965075
0.9712569
0.9140178
0.6161813
0.3920537
0.3336176
0.2348446
0.2051539
0.1451272
0.113533
0.07929556
0.05793233
1.098055
0.7684063
0.6655633
0.5747567
0.4822547
0.4301101
0.3226958
0.2546188
0.1827519
0.1372784
0.8801069
0.9055218
0.7488276
0.7265634
0.6540865
0.6006633
0.4506066
0.3520582
0.2484255
0.1900998
0.869959
0.9381876
0.8616047
0.8472447
0.8602641
0.8159481
0.5948333
0.4354266
0.292208
0.2234257
0.85429
0.9755755
0.9069656
0.946787
1.083
1.109154
0.7446917
0.4896698
0.278974
0.195727
0.9330369
1.014442
0.9426938
1.040205
1.298047
1.62128
1.093512
0.4664775
0.125928
0.1181112
0.9429522
1.013142
0.9861277
1.069926
1.233701
2.273908
1.466061
0.4834739
-0.2262053
0.08667656
0.9083471
0.9659229
0.7833238
0.7674473
0.7022671
0.4636531
0.05716331
0.8996516
0.9210762
0.6762876
0.5714689
0.2843542
0.07321379
0.8723689
0.8803727
0.6241007
0.4778815
0.2176895
0.06554601
0.8590578
0.8577259
0.6064399
0.4322866
0.2178967
0.05929754
0.9178173
0.8383217
0.6153425
0.4237085
0.2366663
0.07238032
0.9425838
0.8804926
0.6650674
0.4595493
0.2846407
0.2323308
0.9507839
0.8773334
0.7039035
0.5572561
0.3375508
0.6305241
0.9617572
0.9143268
0.8035533
0.7226103
0.5896706
0.492659
1.194112
1.618538
3.215831
1.278974
0.9522239
0.9441798
0.8887426
0.847983
0.8213145
0.9650521
1.144536
1.37476
1.350904
1.065582
0.9565763
0.9743582
0.9326089
0.9265805
0.9112241
0.98142
1.068675
1.173633
1.150937
1.01299
0.9551076
0.9874583
0.9633905
0.9600567
0.9404291
0.9913176
1.023126
1.069659
1.044851
0.9529874
0.9564107
0.9985928
0.9780413
0.9845868
0.961106
0.9835924
0.98795
1.000571
0.9743561
0.9155929
0.6472071
0.4503282
0.3426682
0.2513009
0.1999902
0.1475842
0.1050508
0.08177566
0.05387368
0.9723999
0.8203181
0.6618173
0.5317832
0.4542657
0.3971796
0.292655
0.2347741
0.1626889
0.1308455
0.9671534
0.9428808
0.7936688
0.7121949
0.6629601
0.5952924
0.4484887
0.3460385
0.2463118
0.1868562
0.9276616
0.9754061
0.8770704
0.8435812
0.8536062
0.804444
0.5941597
0.4335834
0.2862516
0.2162555
0.9669944
1.020195
0.9557932
0.9516964
1.078271
1.114571
0.7786551
0.4815471
0.2702415
0.1959985
0.925087
1.033172
1.003095
1.04822
1.282019
1.637248
1.016252
0.4312864
0.137143
0.1056011
0.9238397
1.040754
0.9753426
1.084587
1.25342
2.217564
1.082291
0.391139
-0.2066378
0.07555208
0.9258968
0.9587686
0.7938394
0.761029
0.7647346
0.4773792
0.03476154
0.9220734
0.915451
0.692566
0.5579302
0.3904409
0.04733233
0.9310118
0.8815875
0.6315324
0.4784939
0.273044
0.05369421
0.9327248
0.8693637
0.6038193
0.4417974
0.2339373
0.03936597
0.9142492
0.8536253
0.6064407
0.4295709
0.2287818
0.01154712
0.9402622
0.8729953
0.6535256
0.4750908
0.2974719
-0.06523828
0.9787274
0.9033648
0.7196151
0.579866
0.3912387
-0.02812731
1.017251
0.9339373
0.7812448
0.7217587
0.6330592
0.4961061
1.175829
1.622873
3.218556
1.290989
0.9972098
0.9692567
0.8582524
0.8360218
0.8185731
0.9706701
1.137268
1.346729
1.323125
1.040846
0.9974408
0.9995853
0.9076145
0.9174768
0.903605
0.9825316
1.066917
1.166232
1.149282
1.009404
0.9967941
1.009461
0.938907
0.9471642
0.9294001
0.987891
1.019745
1.065766
1.040454
0.9526522
0.9976649
1.017202
0.9587051
0.964689
0.9445269
0.9768992
0.9833013
0.9980185
0.971591
0.9134925
0.875021
0.8387539
0.9838891
0.9553627
0.7263305
0.6789444
0.7178563
0.573536
0.8398799
0.7619108
0.4955961
0.5008504
0.5009712
0.4173596
0.592803
0.5830457
0.3488837
0.4013327
0.3829308
0.300172
0.4941374
0.4744473
0.3043274
0.3594765
0.2798708
0.2336531
0.3942573
0.3960504
0.2406734
0.2855674
0.22755
0.1718142
0.336728
0.3227524
0.1917327
0.2422847
0.1654452
0.1244713
0.2571016
0.2496509
0.1433841
0.1851266
0.1233177
0.08406406
0.198588
0.1867834
0.0977696
0.1465505
0.08634438
0.05876905
0.143625
0.1341988
0.06566361
0.06350294
0.1067465
0.9485122
0.9621526
1.005051
0.96853
0.9995809
0.9912712
0.9798577
0.9917383
1.007416
0.994058
1.006688
0.9970743
0.9958891
1.008554
0.9897698
1.003577
1.008352
1.016922
1.013615
1.025404
0.9907143
1.017157
1.0052
1.028607
1.012081
1.024003
0.989321
1.014976
1.003036
1.033473
1.028874
1.043942
1.008285
1.027809
1.002697
1.039211
2.059787
0.1463668
2.199158
2.012998
0.4520564
0.1222822
0.4022868
0.1339215
-0.02392677
-0.003603164
-0.2293952
0.018818
-0.0589072
0.990283
0.9998611
1.008354
0.9920684
1.003001
1.009906
0.04248542
0.4669718
0.9748179
0.9984976
1.010661
0.9805923
1.004025
1.00563
0.03195208
0.9629032
0.9876224
1.00923
0.9688322
1.003736
0.995429
0.02620211
0.956931
0.9836535
1.010011
0.9626354
1.003742
0.9938108
0.009418441
0.9545958
0.9819782
1.003678
0.9620632
1.004878
0.9980096
0.008398223
0.9597329
0.9919992
0.9927007
0.9683168
1.009157
1.008188
0.01406531
0.9732926
1.00451
0.9952525
0.9757506
1.00975
1.014465
0.1492814
-0.1208623
1.219553
-0.2231866
1.220323
0.9840631
1.01271
0.9971045
0.978509
1.009824
1.022729
1.003984
1.027404
0.9980881
0.9946372
1.009522
1.031926
1.01346
1.031889
0.998178
0.9981563
1.00863
1.036456
1.02097
1.039538
0.9981926
1.003076
1.008594
1.041739
1.025185
1.045685
0.9981214
1.006053
1.044722
0.771951
1.002268
0.9489201
0.8080506
1.133755
0.9867855
2.161362
0.4093439
2.24583
2.176122
0.4720168
0.02049876
-0.08433972
-0.2396208
0.03218858
-0.0886299
0.4734946
0.2091147
0.2503879
0.2046615
1.335674
0.0262381
1.284652
0.9588419
0.7942717
0.9356848
0.4878728
0.9552139
0.7919449
0.9431977
0.7583791
0.9817769
0.9789978
0.7446167
1.118199
0.9607206
2.019528
0.4122189
2.245636
2.026619
0.462987
0.03071166
-0.09224683
-0.2258345
0.03458106
-0.09465587
0.4680292
0.208063
0.2108588
-0.02168246
1.649653
-0.1519758
1.691783
0.9541322
0.7933784
0.9412567
0.497402
0.9565486
0.7938286
0.944828
1.561119
1.731498
1.520988
3.202906
1.574639
1.733286
1.520865
0.7444848
1.068595
0.9744543
0.7589927
1.123977
0.9784374
2.19202
0.4215637
2.218298
2.200319
0.4536646
0.03770587
-0.09502643
-0.2297639
0.03865439
-0.09397856
0.4623317
0.2748012
0.2132648
0.9562751
0.7960922
0.9433237
0.4974045
0.9561188
0.7975878
0.9445601
1.571882
1.71984
1.517906
3.209587
1.569645
1.718823
1.515907
0.7408258
0.9804269
0.9772101
0.7408826
1.049509
0.977095
2.167075
0.4181626
2.199058
2.080819
0.4554196
0.0386076
-0.0965224
-0.2406598
0.03977936
-0.09487679
0.4721923
0.2134287
0.1989823
0.954693
0.7985062
0.9449392
0.4912971
0.9551132
0.7990123
0.9451776
1.5743
1.716732
1.517782
3.213952
1.571371
1.718624
1.514516
0.7566926
0.9985317
0.9811889
0.7495525
1.084151
0.9755423
1.986589
0.4461204
2.281323
2.048159
0.4312404
0.0391185
-0.09512773
-0.2318735
0.04072112
-0.09431216
0.3872494
0.2415423
0.2058134
0.9552998
0.7993846
0.9453545
0.5001516
0.9554208
0.7988153
0.9455301
1.571841
1.718156
1.515008
3.216085
1.571783
1.717457
1.516203
0.7503965
0.9940319
0.9635231
0.7387762
1.071505
0.9633015
2.210332
0.4717784
2.26962
2.056238
0.419607
0.03842045
-0.09161292
-0.2047503
0.04009017
-0.09137385
0.380485
0.2247376
0.2790858
0.9577828
0.79819
0.9452464
0.5005001
0.957466
0.7967813
0.9443975
1.566744
1.717671
1.515745
3.218952
1.569564
1.718597
1.516326
0.7845164
1.073111
1.031888
0.7481562
1.0112
0.9654279
2.143227
0.4761794
2.326532
2.130932
0.4378402
0.03759312
-0.08781666
-0.2073382
0.03334285
-0.08963223
0.4048985
0.2024323
0.1991122
0.957839
0.795313
0.9456378
0.4960492
0.9559901
0.7949415
0.9432615
1.557137
1.722571
1.511087
3.218392
1.56138
1.718602
1.522016
0.7374819
1.116747
0.9668686
0.7879213
1.016234
1.008888
2.162908
0.4396023
2.238645
2.191016
0.4092767
0.03171959
-0.08823508
-0.2102003
0.01822623
-0.08236099
0.2632263
0.2452334
0.1755594
0.9558496
0.792638
0.9442597
0.4809382
0.957452
0.7930641
0.9397594
1.574115
1.730176
1.523435
3.192426
1.652961
1.731436
1.517845
0.8035873
1.098846
0.9752869
0.8137742
0.9442496
0.1095816
0.2025066
0.1908614
0.1428323
0.1848164
0.07730494
0.1449803
0.1291487
0.0850775
0.1419817
1.053784
0.9371748
1.023129
1.055772
1.059913
1.027115
0.9656279
1.063846
1.056674
1.065958
1.096149
0.9420369
1.067909
1.076908
1.084429
2.00759
0.4698069
2.189514
1.85466
0.1325741
0.7033697
1.075469
0.7245655
0.1130255
0.4641503
0.1275074
0.0006600914
-0.06294146
-0.1982095
-0.03700642
-0.04834246
1.065925
0.9538174
1.046347
1.039965
1.046093
0.1317136
0.03648173
0.05954513
0.09126013
0.08862988
-0.02995012
0.0476205
-0.0009709407
1.010402
1.008892
1.015293
0.9916181
1.002614
0.2904113
0.2749017
-0.1290391
1.48948
-0.1841503
1.036204
0.9901958
1.00966
1.024332
0.97477
1.013806
0.9454026
0.807498
0.9455262
0.4304068
0.9751977
0.7870932
0.9655247
1.808174
1.765831
1.566428
2.505019
1.573213
1.654385
1.43611
0.9953045
1.007413
1.035614
1.008398
1.026468
1.006399
1.00961
1.04193
1.009143
0.9963766
1.025897
1.008799
1.007536
1.047653
0.9986468
1.018846
1.039597
1.013875
1.010516
1.050647
1.021144
1.040035
0.9952727
1.004838
0.6862782
0.520284
0.69042
0.5671893
0.4664203
0.3980544
0.5316948
0.4314196
0.3397941
0.3064206
0.3832504
0.2921995
0.2743874
0.2502402
0.3053997
0.2533013
0.2203533
0.209995
0.2538172
0.2024305
0.16626
0.1573287
0.1966803
0.1664039
0.1215272
0.1210958
0.1515776
0.1273894
0.07832679
0.07962609
0.1055446
0.09503315
0.0501523
0.05752991
0.07415935
0.06908465
1.018414
1.016683
1.016032
1.026178
1.017078
1.022679
1.01803
1.033863
1.015353
1.02333
1.01421
1.034923
1.012527
1.02313
1.007192
1.035392
1.013895
1.024196
1.005527
1.037137
1.013475
1.025224
0.9984249
1.039206
1.656317
1.107824
0.8294956
1.264944
1.598537
1.183427
1.077061
0.6947901
1.081086
0.7062017
1.0217
1.023133
1.001957
1.040863
0.3854874
0.4266583
0.1320686
0.7630482
0.3391598
0.5148615
0.08226214
0.07091663
0.2019401
0.01250971
0.02717897
0.02559746
-0.0660289
-0.03195794
1.015488
1.017101
0.9923342
1.03472
0.1051617
0.2296236
0.06948601
0.3899106
0.08066582
0.2887906
0.04245059
0.03126121
0.01851697
0.003795743
0.006091655
0.03640752
-0.01701466
0.04894445
1.017321
1.0178
0.9951176
1.033429
0.06329888
0.1800022
0.05419849
0.280263
0.04829382
0.2224962
0.03541318
0.01883447
0.01717746
0.002682988
0.01919799
0.03606348
0.02369737
0.03601069
1.016474
1.016024
0.9949705
1.031817
0.05326417
0.1678444
0.05183051
0.2468421
0.04078243
0.1993173
0.03781246
0.01441938
0.0176239
0.002732335
0.01264369
0.03353626
0.004993142
0.04250191
1.014687
1.014135
0.995421
1.030639
0.05402419
0.1661489
0.06090003
0.2502288
0.04384643
0.1990859
0.04177945
0.00711385
0.008849351
0.001382931
-0.03781453
-0.05961531
0.008253717
-0.01875493
1.010308
1.013072
0.995432
1.030765
0.06749248
0.1949245
0.07670462
0.2856028
0.05194482
0.241743
0.02655329
0.0008629072
0.006821126
0.002753497
-0.1778598
-0.2189787
-0.1776771
-0.3405895
1.006989
1.012203
0.9962217
1.031381
0.1141388
0.3559822
0.1868459
0.4188161
0.05755571
0.3879684
0.3068502
0.03188412
0.00794702
0.01608567
-0.5634195
-0.5333497
-0.5759882
-0.777851
1.005215
1.01129
0.9954875
1.031749
0.9646481
0.7753938
0.9656858
0.56738
0.9355802
0.8067141
0.9445366
1.381347
1.11454
1.263248
1.167621
1.351434
1.114176
1.283817
2.199891
1.433236
1.634451
1.621001
2.145905
1.484497
1.73482
1.708676
1.698965
1.476595
3.082289
2.110808
1.8718
1.644669
1.006373
1.011642
0.9938729
1.033614
1.006522
1.010849
0.993483
1.034865
1.005609
1.010082
0.9930933
1.035716
1.004761
1.009248
0.9929843
1.036133
0.9841312
0.9829881
1.618133
1.145504
1.2685
1.241168
1.621175
1.151177
1.25182
0.124122
0.4723525
0.1397308
0.4032297
0.441499
0.2084284
0.7028539
0.3995616
0.4028678
0.2327482
0.3644426
-0.07010635
-0.006337863
-0.08683607
-0.04452058
0.02658065
0.3146044
0.1370261
0.3348639
0.01926638
0.3063112
0.147355
0.5108152
0.6209309
0.65877
0.5895332
0.511446
0.6166931
0.6624157
0.6811729
0.7167395
0.6469438
0.4860001
0.6849267
0.7158151
0.6368999
2.105614
1.490673
1.740112
1.60538
2.150147
1.506561
1.758443
1.797249
1.833928
1.664245
3.060885
1.730642
1.833666
1.634875
0.9957613
0.9674733
1.592994
1.159375
1.158542
1.232643
1.598397
1.150029
1.231579
0.1324716
0.4700196
0.1481841
0.4180097
0.3932592
0.2442403
0.6935547
0.3866866
0.3639948
0.2454006
0.4275849
-0.08059586
-0.00748641
-0.07701258
0.005990458
0.02038742
0.3045853
0.1515813
0.3414286
0.02042257
0.3040243
0.1509476
0.5156357
0.6008314
0.6579404
0.5886541
0.5195016
0.6033682
0.6597389
0.678885
0.710328
0.6338801
0.4956076
0.6789023
0.7135198
0.6337377
2.097071
1.484534
1.758446
1.619311
2.095594
1.485342
1.767097
2.013096
2.573654
2.144602
3.205612
2.020398
2.583566
2.140193
0.9649909
0.9748655
1.627738
1.153825
1.14467
1.24658
1.615995
1.152326
1.18587
0.1427313
0.483673
0.1443652
0.4033377
0.3797607
0.2604257
0.6994081
0.3932133
0.3714501
0.254314
0.4677784
-0.08152372
0.008338667
-0.08019346
0.01412291
0.02349904
0.2945336
0.1447219
0.3371611
0.02207461
0.2953366
0.1450936
0.06596267
1.692594
-0.1449756
1.70205
0.5190763
0.6028146
0.6602922
0.5862755
0.5183716
0.6020188
0.6611711
0.6756322
0.7154774
0.6343395
0.4960471
0.6754965
0.7149433
0.6343025
2.088812
1.483288
1.769562
1.618096
2.0916
1.482065
1.769014
2.021756
2.575785
2.1582
3.210192
2.024564
2.587051
2.156335
0.9927963
0.9602777
1.605661
1.150964
1.19254
1.233443
1.59826
1.152965
1.194677
0.1414991
0.4730989
0.1418714
0.4082439
0.3690163
0.2549129
0.7003797
0.3979485
0.3698924
0.2550466
0.4746487
-0.08421136
0.002210232
-0.08343906
0.0103008
0.02153249
0.2949605
0.1506711
0.3443905
0.02250884
0.2967956
0.1470701
-0.1762594
1.711156
-0.1522864
1.700183
0.5176614
0.5992709
0.6625366
0.5856005
0.5178502
0.5998811
0.6635651
0.6849912
0.7123236
0.6361757
0.4986346
0.6864836
0.7146822
0.6364192
2.088002
1.482745
1.769696
1.618946
2.091958
1.483872
1.770069
2.024207
2.580562
2.156721
3.215012
2.023692
2.579544
2.15719
1.001604
0.9691066
1.598401
1.156176
1.207602
1.236165
1.594795
1.161776
1.17443
0.1423693
0.4779658
0.1433903
0.4114821
0.3719674
0.2577098
0.7066771
0.4246165
0.3751914
0.2594243
0.4146515
-0.08585419
0.007789996
-0.08825386
-0.009669133
0.02440838
0.2980062
0.1457021
0.3394332
0.02106927
0.2977275
0.1518755
-0.1843021
1.700467
-0.2090665
1.708613
0.5176633
0.6001406
0.6640146
0.5852824
0.5187731
0.5998393
0.6626752
0.6872246
0.7131022
0.6370311
0.5018246
0.6916842
0.7159659
0.6378795
2.092469
1.484114
1.770186
1.619088
2.092031
1.484189
1.770375
2.024251
2.576317
2.157495
3.215051
2.024089
2.587232
2.1577
0.9896222
0.9790767
1.61005
1.164712
1.229306
1.244879
1.633243
1.168616
1.16043
0.1493364
0.4898338
0.1473018
0.4074725
0.3716366
0.2623016
0.7135227
0.424693
0.3804479
0.2657917
0.3753918
-0.08307297
0.01184557
-0.07983099
0.008235846
0.02176852
0.294081
0.1466313
0.3389714
0.02307844
0.2927458
0.1445234
-0.05614391
1.688315
-0.187249
1.704211
0.519577
0.6013905
0.6612521
0.5868295
0.520135
0.6024476
0.6604969
0.6818444
0.7174968
0.6363991
0.5007196
0.679814
0.7149571
0.6370273
2.0948
1.483427
1.769824
1.619878
2.094338
1.484509
1.770626
2.025978
2.584526
2.157359
3.217258
2.024574
2.593861
2.159858
0.984937
0.9848076
1.618122
1.171174
1.251256
1.241359
1.586227
1.179006
1.236303
0.1497152
0.5046092
0.1412815
0.40795
0.3710086
0.2519526
0.7260813
0.4265894
0.3997542
0.2509142
0.430686
-0.0821593
0.006937475
-0.07789579
-0.007505031
0.02115644
0.3043612
0.1500596
0.3439153
0.02332912
0.30465
0.1523656
-0.05708657
1.67947
0.2043944
1.671351
0.5214048
0.604919
0.6610433
0.5885978
0.517485
0.602865
0.6596494
0.6786872
0.717238
0.6353745
0.4990017
0.6769784
0.717902
0.6356983
2.099131
1.483806
1.768852
1.618309
2.090553
1.483363
1.768232
2.027754
2.590132
2.162236
3.224391
2.025499
2.585491
2.165818
0.974077
0.9990608
1.631572
1.153486
1.165732
1.238953
1.627799
1.14335
1.255606
0.144745
0.4675396
0.1321554
0.4206912
0.3958845
0.242031
0.7048494
0.4006738
0.4317372
0.2137329
0.4616129
-0.08694466
-0.04904429
-0.0670897
-0.006042967
0.01883207
0.3009182
0.1498252
0.3245219
0.02309299
0.300596
0.1460766
0.2458246
1.627935
0.3014396
1.60212
0.5153977
0.6151384
0.6610461
0.5871227
0.5129272
0.6188761
0.6543485
0.6802102
0.7138198
0.6322085
0.4926132
0.6798598
0.7149823
0.6320245
2.098301
1.487286
1.767664
1.61397
2.085508
1.473214
1.74813
2.042567
2.607305
2.160646
3.209006
2.032181
2.618268
2.174931
0.9833422
0.9677352
0.5908253
0.8338905
0.7766711
0.6325254
0.4684326
0.7594863
0.6547205
0.434339
0.6128214
0.6064208
0.3435591
0.4598483
0.5360629
0.3254756
0.5011153
0.4787294
0.4001515
0.4313979
0.2477206
0.4030411
0.3909287
0.2561455
0.3019788
0.3674507
0.2000291
0.3418107
0.3306825
0.2500479
0.30114
0.144985
0.2606939
0.2484427
0.1940899
0.2489067
0.1085568
0.05033417
1.033828
0.9293134
1.037867
1.009796
1.044555
1.079024
0.93526
1.053744
1.071376
1.005416
1.087091
1.080464
0.9302422
1.067534
0.9832774
1.072278
1.08176
1.602964
1.184063
1.103355
1.145077
1.630239
1.08393
0.7312913
0.3497966
0.5145817
0.08475429
0.6220222
0.2477839
0.4061773
0.111616
0.3683001
-0.0533042
-0.002919819
-0.009593094
-0.003965698
1.045444
0.9357917
1.035415
1.020188
1.042705
0.08540332