/*--------------------------------*- C++ -*----------------------------------*\
  =========                 |
  \\      /  F ield         | OpenFOAM: The Open Source CFD Toolbox
   \\    /   O peration     | Website:  https://openfoam.org
    \\  /    A nd           | Version:  7
     \\/     M anipulation  |
\*---------------------------------------------------------------------------*/
FoamFile
{
    version     2.0;
    format      ascii;
    class       volScalarField;
    location    "0.1";
    object      Uy;
}
// * * * * * * * * * * * * * * * * * * * * * * * * * * * * * * * * * * * * * //

dimensions      [0 1 -1 0 0 0 0];

internalField   nonuniform List<scalar> 
105056
(
0.02236214
0.008268705
0.0097364
0.01130377
0.01094582
0.00550055
-0.0008022759
-0.002319064
0.0007530105
0.001182946
-0.005378568
-0.001550485
-0.001984253
-5.181495e-05
-6.834684e-05
-0.008129977
-0.001495591
-0.001465658
-0.000566843
-0.0005022747
-0.007067056
-0.0006480489
-0.001243287
-0.0002758083
-0.0001695477
-0.004228576
-0.0004428424
-0.001234353
-0.000489259
-0.0003198198
-0.001031618
-0.0002051358
-0.001171599
-0.0005939291
-0.000575401
0.000174723
0.0001191572
-0.001203587
-0.0005747029
-0.0007296988
0.001286718
-2.090956e-05
-0.001023339
-0.0006057861
-0.0006826153
0.001390903
-6.198936e-05
-0.0008325708
-0.000547035
-0.0005958575
0.0002286901
-8.06524e-05
-0.0006228351
-0.0004852768
-0.0005494435
0.0004763972
-7.061156e-05
-0.0005723651
-0.000472357
-0.0004883756
0.001229291
-6.675731e-05
-0.0005744277
-0.0004940313
-0.0004230363
0.0001984427
-5.544654e-05
-0.0005006327
-0.0004077046
-0.0003660574
-0.002648798
-0.0001442947
-0.0001372783
-0.0001894948
-0.0003108714
0.0005553236
-0.0001502656
4.824821e-05
-0.0001367167
-0.0002495687
-0.001318204
0.0001285211
0.002369821
-0.0004801035
-0.0002464867
5.502747e-05
0.0001607553
0.0009534348
-0.0002477233
-0.0001980941
-0.000218478
0.0003660852
0.001559047
-0.0001856906
-0.0002419258
-0.002060186
-0.0003453632
0.001924078
-0.0001304293
-0.0002181876
0.0001157699
-0.0001829979
-0.0009673864
-0.0001837712
-0.0001712761
0.0001315072
-0.0002770287
-0.0007432342
-0.0001262724
-9.962986e-05
0.004998007
1.123484e-05
0.0001942148
-6.229611e-05
-8.281932e-05
0.008494974
-0.003624901
-0.003457172
-0.002045207
-0.002132031
-0.03560446
-0.02011572
0.03494406
-0.008101464
0.007475085
-0.000603722
-0.00734142
-0.02539544
0.01658713
-0.005747224
0.00239274
-0.0003873344
0.007994501
-0.01317237
0.01024614
-0.003410398
6.009065e-05
-0.0002046711
0.007094178
-0.007418778
0.004846032
-0.001516666
-0.0008304673
-0.001848185
0.004911923
-0.00278683
0.002573241
0.0005284321
-0.0004555034
-0.001181377
0.004400282
-0.0002445428
0.0004686575
0.0007124372
-0.0005795676
-0.001011811
0.005334976
0.0008965993
-0.0002411961
0.0004365814
-0.0002275336
-0.0005758554
0.006153178
0.001167729
-0.0003159028
0.0001535341
-0.0002930364
-0.0005043415
0.006243076
0.001069386
-0.0003802903
-4.557281e-05
-0.0003306291
-0.0005886139
0.006259718
0.0008872461
-0.0003275506
5.912747e-05
-0.0003218628
-0.0006975075
0.006526799
0.0006748654
-0.0002386713
8.939964e-05
-0.0003151014
-0.0006963993
0.006052875
0.00051084
-0.0001688194
-4.349742e-05
-0.000329913
-0.0006208715
0.00488362
-1.562304e-05
-0.0002904235
-0.000369139
-0.00032253
-0.0004675296
0.002428823
-0.0006773994
-5.868201e-05
-0.0002314017
-0.0002481466
-0.0002805974
0.005779694
0.0001831794
-5.143114e-05
-0.0001936468
-0.0001862011
-0.0001269709
0.00544662
0.0002358696
-0.000273687
-0.0004400288
-0.0002383637
-0.0001722193
0.002510162
-0.0002375802
-0.0002514042
-0.0006211884
-0.0002431383
-0.0001372751
0.005239303
-2.406673e-05
-0.0002677555
-0.0005029635
-0.0001306445
-4.739305e-05
0.004849597
0.0008514128
-0.0005445574
-0.0006596995
-0.0001022273
-0.0002473619
0.005409258
0.001461908
-0.0005388073
-0.0003822187
-4.527911e-05
-0.0001148219
0.00625754
0.000792956
-0.0001142134
-2.088252e-05
0.0001894123
6.385772e-05
0.002923684
0.0007233666
-1.093476e-05
0.0001958608
0.0002454951
0.0001492771
-0.005501282
0.0008095895
-0.000334526
8.116628e-05
9.620497e-06
-8.797747e-05
0.006626724
-0.007817204
-0.007124945
-0.004523717
-0.00514783
-0.1051078
-0.03165729
0.03882251
-0.01473225
0.005392241
-0.004210965
-0.006593834
-0.02311928
0.01176965
-0.0118131
-0.0007493227
-0.001905208
0.007008638
-0.02459561
0.01675482
-0.004108635
0.002371769
-0.0004969644
0.00482811
-0.009642578
0.0061151
-0.002510395
0.0001538945
-0.001043285
0.00294693
-0.001945819
0.007449469
7.797112e-05
0.001461228
0.001309329
0.0004508223
0.001581889
0.006327572
0.0006301224
-0.0007253097
-0.0004552338
0.001009897
0.002144352
0.003112834
0.0003791191
-0.0005619801
-0.0002289623
0.001437975
0.002047678
0.001275935
0.0001908731
-0.0005437022
-0.0003692395
0.001288844
0.001457925
2.716439e-05
-8.748993e-05
-0.0004516193
-0.0002427168
0.0009998599
0.0009659375
-0.0004803372
-0.0001903983
-0.0002766285
-0.0001075372
0.00102217
0.0003905746
-0.0005524424
-0.0001707091
-0.0001361924
2.75297e-05
0.0009789045
-0.0001087673
-0.0005829418
-4.202265e-05
1.368183e-05
0.0001635569
0.00121028
-0.0005118673
-0.0007471049
-5.401369e-05
0.0001352237
0.0001924248
0.0007759301
-0.0007954611
-0.0004211153
-4.338688e-05
0.0001944281
0.0001155985
0.0009749012
-0.0003213704
-0.0004404191
7.736938e-05
0.0002980585
6.838842e-05
0.0006347059
-0.0002832825
-0.0007309806
0.0001310326
0.0001333495
2.454447e-05
-0.0005096033
-0.0002338399
-0.0006475869
1.476956e-05
-0.0001095201
-1.778757e-05
-0.000643764
0.000311748
-0.0006567403
-9.199712e-05
-6.901765e-05
-8.184906e-05
-0.00130059
0.0005557695
-0.001243124
-0.000238251
-0.0004857183
-0.0001912017
-0.001363351
0.0009988711
-0.0009673689
-0.0001043642
-0.0003564636
-0.0001138724
-0.000881923
0.0003479104
-0.0001411494
-8.17474e-05
-0.0003566052
-0.0001312012
-0.004897707
-3.485716e-05
0.0001012171
-0.0002060538
-0.000452053
-6.580043e-05
-0.008858608
0.00115511
-0.000528829
-0.0001834955
-0.0003394576
-0.0002919676
8.2664e-05
-0.01088449
-0.008789783
-0.007195805
-0.005468597
-0.09588632
-0.04450568
0.03605528
-0.01637091
0.00482565
-0.002439389
-0.02901863
-0.0236481
0.004281045
-0.01665188
-0.00474257
-0.004228431
-0.00476169
-0.02326067
0.008520716
-0.01049271
0.0002683915
-0.0005573164
0.002371132
-0.01261771
0.003676142
-0.004542457
-0.002601034
-0.002131687
0.001065242
0.001640174
0.001732238
-0.002939322
-0.001964683
-0.002053091
-0.0004917904
0.003127166
0.0007620617
-0.001176813
-0.001990235
-0.002255377
0.006598992
0.002570511
0.0002559146
-0.001129614
-0.001968701
-0.001407573
0.008497271
0.002452412
-0.0005282974
-0.001048674
-0.001722296
-0.001355259
0.005799451
0.001686665
-0.0006697422
-0.0009202386
-0.001597093
-0.001165692
0.003866927
0.001062278
-0.0008821353
-0.000908909
-0.001399796
-0.001137692
0.001448118
0.0006136954
-0.001306655
-0.0008753051
-0.001139873
-0.001016763
-0.0007160009
0.0003394281
-0.001668226
-0.0008718562
-0.0009306217
-0.0007539489
-0.001612081
-0.0001587219
-0.001959581
-0.0009128327
-0.0006323777
-0.0002009788
-0.0004979669
-3.297074e-05
-0.001842213
-0.0009638185
-0.0005369062
1.711874e-06
-0.0007574407
0.0003200995
-0.001620698
-0.000776556
-0.0003989044
0.000131559
-0.000903052
0.0002266402
-0.001495892
-0.0005858341
-0.000316159
1.464494e-05
0.0001586672
8.874007e-05
-0.001187724
-0.000406464
-5.851014e-05
3.40114e-05
0.002463517
0.0001562507
-0.000506493
-0.0001374987
0.0002527385
0.0002682015
0.002938653
-7.947031e-05
-0.00042293
-0.0001599331
0.0003272419
0.0001246756
0.002170194
0.0005310611
-4.289557e-05
0.0001952788
0.0002920253
0.0002691951
0.001148045
-0.001169645
0.0003381622
0.0002947927
0.0002397994
-0.0001924892
2.218395e-05
-0.002112966
0.0006127969
0.0009373786
0.0004235401
0.0002957554
-0.002981088
0.00173303
-0.0005729559
0.0004023764
0.0002886582
0.0001592662
-0.002615166
-0.01256196
-0.007389851
-0.007498047
-0.005457588
-0.1177849
-0.0500726
0.02963118
-0.01639487
0.0005881946
-0.004230311
-0.03404657
-0.03381759
-0.0004878561
-0.02041559
-0.003813591
-0.002652535
-0.007265786
-0.0102393
0.0002741218
-0.01359734
-0.005377381
-0.003943033
-0.004617058
-0.008816992
-0.002787711
-0.005721646
-0.004882332
-0.002703776
0.01274203
-0.001985643
0.002680211
-0.0002078891
-0.0005923014
0.001933193
0.008372884
0.0004211732
0.0004352568
0.0004221121
-0.001174498
-0.00062196
0.01316035
0.001751176
-0.001079595
-0.0001266763
-0.001021964
-0.0006091791
0.01521956
0.001603625
-0.0008444076
-0.0008617506
-0.001083005
-0.0008236663
0.0073474
0.0006056435
-0.001022862
-0.0006098126
-0.0008569159
-0.0009287169
0.004914679
0.0002970405
-0.001136901
-0.0007235276
-0.0009250201
-0.0009017338
0.003485317
-0.00027911
-0.001285628
-0.0004926479
-0.0006607682
-0.0007778438
0.002301759
-0.0005453656
-0.001424599
-0.0005882789
1.163132e-05
-0.0004496893
0.00163739
-0.0004863298
-0.001539515
-0.0008251855
8.106473e-05
-0.0002274441
0.001619925
-9.066645e-05
-0.001673914
-0.0006563291
-1.646501e-05
-0.00013343
0.0009590049
-2.238394e-05
-0.001470741
-0.000542264
-0.0001437507
-9.058149e-05
0.0007535024
-6.514151e-05
-0.001081456
-0.0001725847
4.676509e-05
0.0001304822
0.0002412681
-0.0001062621
-0.000588071
0.0001534293
-5.369548e-05
0.0002716302
0.001379066
-7.904133e-06
-0.0001016602
0.0004452368
0.0001342616
0.0002905483
0.00162549
6.54125e-05
0.0001380865
0.0002179434
-0.0001501713
0.0001430991
0.001795068
-2.311302e-05
0.0007823005
0.000455088
-0.0001628592
-1.563085e-05
-0.0001487858
-0.0002824249
0.0006512762
0.0009623255
-8.639605e-05
-0.0004554346
-0.001437373
-0.002029929
0.0009550482
0.001469655
0.0001440672
0.0003162968
0.0757719
-0.001163824
-0.0002752081
-0.0003319763
-0.0001685421
-0.0003776046
-0.002453078
-0.01036497
-0.006390126
-0.00364547
-0.004796497
-0.1146747
-0.04985613
0.03262906
-0.01567303
0.001837932
-0.003980323
-0.04135627
-0.03380022
0.0007792851
-0.01995774
-0.003522611
-0.002604707
-0.01890667
-0.008327898
-4.261871e-05
-0.01317045
-0.005361402
-0.003797394
-0.009992705
-0.005561948
-0.002517821
-0.005899654
-0.004757144
-0.002680398
-0.001120372
-0.002861038
0.002158381
-0.0001814523
-0.0008330689
0.00208898
-0.0001555999
0.0003466277
0.0001298306
0.0003088795
-0.001228601
-0.000831275
-8.632944e-05
0.001779534
-0.0004231165
-0.0004746695
-0.0009848332
-0.0006700901
-8.804301e-05
0.002102528
-0.000751712
-0.0008355396
-0.00109271
-0.0009731904
-3.884533e-05
0.001095757
-0.0008773549
-0.0008858129
-0.0009212595
-0.001160443
3.888935e-06
0.001082194
-0.001017936
-0.0008944357
-0.0009642854
-0.0009346103
8.847747e-06
0.0003907389
-0.001054885
-0.0007931974
-0.0007747545
-0.0008754476
1.24961e-05
-8.64827e-05
-0.001146965
-0.0006808721
-0.0002513619
-0.0004475382
1.289749e-05
-0.0005530138
-0.001292795
-0.0006405892
0.00025886
0.0003136474
1.716476e-05
-0.0007533066
-0.001299534
-0.0005138823
0.0002117231
0.0005862774
5.628107e-06
-0.0005196029
-0.001197178
-0.0003802105
0.000180475
0.0005723118
2.401885e-06
-0.0003194003
-0.0008755186
-0.000135556
0.0001086876
0.0005767505
-1.218807e-06
-0.0003750282
-0.0006256335
8.05229e-05
0.0001078631
0.0004187677
-2.051936e-07
-0.0001157031
-0.0004185611
0.0002131403
0.0002616923
0.0004832758
-5.339123e-06
-0.0001573135
1.457416e-06
0.0002837313
7.242199e-05
0.0003303741
-8.210675e-06
-0.0002399667
0.0003184143
0.000445461
0.0002067683
0.0003802151
7.642152e-07
-0.0009138904
0.0002294392
0.001092261
0.0003386548
-0.0004611892
-2.75334e-05
-0.005376563
0.001466285
0.002120464
0.001489524
0.001363138
0.003339426
-0.0006251541
0.0001842538
0.0004047437
8.57999e-05
0.0004029795
0.004360969
-0.008914069
-0.006096977
-0.003380647
-0.004656471
-0.1094534
-0.04013318
0.03277116
-0.01664375
0.003081571
-0.002324438
-0.07941403
-0.02229498
0.004098958
-0.01674745
-0.004833724
-0.004351637
-0.02257975
-0.02368605
0.008461044
-0.01050543
9.669108e-05
-0.0009128359
0.08226057
-0.01061218
0.003909542
-0.004378745
-0.002728274
-0.002277853
-0.004467865
0.0009768007
0.0005804861
-0.003021871
-0.001931745
-0.002058571
0.0002828863
0.002815493
-0.0004158625
-0.001201149
-0.001971641
-0.002400618
0.0003961753
0.002936084
-0.0003561293
-0.00115233
-0.00199768
-0.001394499
0.0003687592
0.002330748
-0.0006841079
-0.001095992
-0.001830375
-0.001381534
0.0002556307
0.00112281
-0.0007246239
-0.0009082798
-0.001704125
-0.001191461
0.0001792333
0.0005497352
-0.0009622912
-0.0009100599
-0.001492512
-0.001156319
0.000133369
0.0001788684
-0.001318828
-0.0008883671
-0.001100417
-0.000913555
0.0001312475
-0.000205617
-0.001562749
-0.0008555302
-0.0008535134
-0.0006731773
0.0001066315
-0.00027726
-0.001934564
-0.0008385132
-0.0006857058
-0.0003519366
7.059695e-05
-0.0002520978
-0.002135034
-0.000948066
-0.0005495142
-0.0002080122
5.043106e-05
9.527963e-05
-0.001974554
-0.0008177751
-0.0005088348
-8.334884e-05
3.832838e-05
0.0002748771
-0.001724752
-0.0006025034
-0.0003883105
-6.390097e-05
-6.284649e-06
0.0002224594
-0.001318082
-0.0004147832
-0.0001222971
-2.539032e-05
-8.8909e-05
0.0003574022
-0.0004133587
-0.0001838495
0.0002841769
-6.658678e-06
-6.276802e-05
0.0001640034
-1.415503e-05
7.334373e-05
0.000371048
6.18812e-05
-4.796703e-05
0.0005659911
0.0002858152
0.0003674347
0.0002167624
-0.0004124362
-8.105483e-05
-0.001985448
0.001204435
0.0008176605
-5.343187e-08
3.959886e-05
-1.113512e-05
-0.003525395
0.0005785603
0.0007113549
-0.0005669754
-0.0007897308
6.052895e-05
0.002725103
-0.0004146447
0.0005197958
-8.330143e-05
-2.347497e-05
0.002919397
-0.00817455
-0.007859038
-0.00405549
-0.005647545
-0.1395067
-0.03407706
0.03853963
-0.01466065
0.005466562
-0.00422544
-0.07010768
-0.02258606
0.01233193
-0.01153375
-0.000572174
-0.001838739
0.04100822
-0.02476036
0.01652508
-0.004214272
0.002442122
-0.0004465853
0.0318534
-0.00918021
0.005684629
-0.002622699
0.0001428157
-0.001021204
-0.002723256
-0.001727834
0.006725948
-0.000186231
0.001267353
0.001281663
-0.0002743947
0.0009404962
0.005772735
0.0003435063
-0.0008907351
-0.0005238403
-3.541446e-05
0.002217641
0.003092002
0.0001501568
-0.000654323
-0.000259032
-5.317128e-05
0.002199949
0.001429285
9.92817e-05
-0.0005506109
-0.0003629292
-8.404229e-05
0.001541146
-5.126523e-05
-0.000156915
-0.0005046635
-0.0002235677
-9.027473e-05
0.0009786564
-0.0007954479
-0.0002708798
-0.0003187107
-7.550437e-05
-0.0001074182
0.000754483
-0.001001929
-0.0002502654
-3.813425e-05
0.0001146416
-0.0001511652
-3.454692e-05
-0.0005970992
-2.066139e-05
9.197615e-05
0.0002264204
-0.0001997174
-0.0002461448
-0.0004386216
5.112493e-05
0.0003206238
0.0003297637
-0.0001365674
-0.0007780851
-0.0006649242
-8.159971e-05
0.0002020968
0.0002015063
-9.288066e-05
-0.0007128202
-0.0007269256
1.807188e-05
0.0001531556
0.0001390004
-8.355385e-05
-0.0001481774
-0.0008708169
0.0001102802
3.972451e-05
2.477514e-05
-9.127102e-06
-0.0003158249
-0.0008326765
9.933616e-05
-7.768043e-05
-4.419302e-05
-2.598913e-07
0.0001705528
-0.0007731838
-9.262701e-05
-0.0001278668
-0.0001351636
2.793523e-05
0.0003627716
-0.000149092
-0.000294688
-0.0004070783
-0.000254047
2.550116e-05
0.00111358
-0.0007388016
-8.016493e-05
-0.0005421475
-0.0002066204
4.440371e-05
0.0008611795
-0.0001136742
2.188395e-05
-0.0007671999
-8.164956e-05
-0.000234069
-0.001434604
0.000890555
-0.000459053
-0.0001033662
0.0004610619
0.0001918243
0.001043113
-0.000242499
-8.893646e-05
-0.0001879067
-0.0003166246
0.003011356
-0.005270183
-0.008253874
-0.004827236
-0.005034048
-0.135863
-0.02020776
0.0354206
-0.008114188
0.007386218
-0.000626476
-0.01947588
-0.02584445
0.01680798
-0.005749651
0.002391884
-0.0004316875
0.02969574
-0.01306856
0.01035877
-0.003344483
-7.081034e-05
-0.0002955286
-0.0007119485
-0.00714738
0.004543237
-0.001571197
-0.0008923923
-0.001912007
-0.0003875887
-0.002651825
0.002340369
0.000358888
-0.0004905081
-0.001208625
-0.0003302738
-8.483861e-05
0.0003364075
0.0005776645
-0.0005708601
-0.001066157
-0.0002518531
0.0009331935
-0.0002985449
0.0002608244
-0.0002561728
-0.0006375091
-0.0002018959
0.001078447
-0.0003348025
0.000107826
-0.0003143741
-0.0006283619
-0.0001872972
0.001246307
-0.0002569375
-0.0001250401
-0.0003176323
-0.0007248441
-0.0001095286
0.0009030374
-0.0003654248
-0.0002576221
-0.0003362431
-0.0007939139
-9.815203e-05
0.0007839167
-0.0003467816
-0.0002928497
-0.0003354544
-0.0007168925
-1.380259e-05
-7.146925e-05
-0.0001646814
7.854247e-05
-0.000323416
-0.0006329736
0.0001079757
0.0003645535
-9.064814e-05
5.97418e-06
-0.0002611807
-0.0003705321
-0.0001121127
-0.0002114889
-0.000194268
-0.0004701902
-0.0002337657
-0.0002745297
-0.0006018582
0.0001164629
-0.0001882296
-0.0004599588
-0.0002132833
-0.000246194
3.677176e-05
4.602615e-05
-0.0002788821
-0.000534758
-0.0002938395
-0.0002606317
0.00114939
-8.685727e-06
-0.0002580938
-0.0002106984
-0.000183581
-0.0001258996
-0.0001083025
0.0008897433
-0.0002198413
-0.0007690235
-4.405259e-05
-2.843448e-05
-0.005868203
0.00104325
-5.624251e-05
-0.0006293438
-0.000137832
2.203482e-05
0.02128633
8.404917e-05
-0.0002738231
0.0003385915
1.723799e-05
-0.0002850501
-0.0001361976
-0.0003356951
-0.000321315
0.0003616001
1.284842e-06
-1.153097e-05
-0.0003748537
-0.0004517285
0.0001863481
0.001072084
-0.0001750584
-6.03266e-05
8.682173e-05
0.0004913353
-0.00028351
0.0009559794
-0.0001171132
-0.0002234591
0.01314049
-0.003877838
-0.0007561876
-0.001303572
-0.0005222481
0.006096018
-0.01082178
0.008999499
0.005334828
0.008448872
0.007083781
-0.003897566
-0.0004640624
0.005309695
-0.0009123434
-0.0004642593
-0.0002590149
0.0001610814
-0.003656701
0.001002621
-0.004685044
-0.002050426
-0.0004651589
0.0003881719
-0.003984854
-0.0006672056
-0.001878132
-0.0002983344
-0.001249809
0.0005630555
-0.002884815
-0.0009527812
-0.0002557222
0.0004645006
-0.0001690835
0.0006105514
-0.002103097
-0.001980671
0.000986835
0.0003667676
-0.0002313551
0.000666543
-0.001304813
-0.000940465
0.0005756653
0.0001098028
-0.0001074011
0.0006940572
-0.0004823787
-0.0001831104
-8.255613e-06
-0.0002721133
-0.0003940775
0.0007528703
-0.0003593147
0.0001850345
-0.0003872946
-0.0004143577
-0.0004475544
0.0007338
-0.0007864535
1.911795e-05
-0.000283583
-0.0002912356
-0.0003752489
0.0006358823
-0.001636738
-0.0009816175
-1.892555e-05
-0.0001150178
-0.0002514515
0.0005605823
-0.001138911
-0.0002429637
6.972503e-05
1.704752e-05
-0.0001476487
0.0004624242
-5.37849e-05
0.0003732767
5.884891e-05
0.0001020419
-9.230174e-05
0.0005175216
-0.001104056
-0.0001142979
-0.0001029335
-1.103002e-05
-1.820179e-05
0.0003184793
-0.0004523702
-0.0001912439
5.785917e-05
0.0002131954
2.501786e-05
0.0003153078
0.0003047677
0.001087655
0.0003264854
0.0004382715
8.419825e-05
0.0004367237
0.001787641
0.001214835
0.0005397607
0.0006269243
7.828498e-05
0.0005275801
7.068296e-05
0.0001135355
0.001359377
0.0002511719
7.125778e-05
9.683115e-05
-0.0007381071
0.0004417366
0.0003130883
9.187878e-05
0.0002432173
0.02880863
-0.01133898
-0.002462148
-0.001144321
1.052918e-05
0.0002795635
-0.0002807137
0.001860218
0.001721344
-0.0009206254
-9.33571e-05
-9.373992e-05
-0.01027809
0.0005060116
0.000720121
0.0005813545
-0.0001981251
-0.0001643616
0.008643852
-0.007785917
-0.003071583
3.712986e-05
-0.0007317424
0.0001000589
-0.01041277
-0.03963578
0.003341234
-0.001888094
-0.005507753
-0.01964969
0.005603775
0.004206107
-0.1109094
-0.002722222
0.008279805
-0.01792981
-0.003764157
0.004928085
-0.03816067
0.004522018
0.008197993
-0.01831423
0.000153286
-0.0009783645
-0.02799858
8.162421e-05
0.01080072
-0.01870549
0.0003789072
-0.0001944633
-0.0267043
-0.001058416
0.01260601
-0.01797003
0.0005613046
-0.001396075
-0.02623906
-0.002121784
0.01469488
-0.01755943
0.0006132294
-0.002136099
-0.02599543
-0.002642862
0.01527188
-0.01675689
0.000660944
-0.002182514
-0.02571041
-0.002259299
0.01618761
-0.0160943
0.0006787641
-0.001761996
-0.02478243
-0.001976308
0.016618
-0.01729949
0.000687366
-0.001582537
-0.02402969
-0.001753814
0.01658593
-0.01598799
0.0006166151
-0.001485621
-0.02375384
-0.001558784
0.01675818
-0.01634477
0.0006460606
-0.001105676
-0.02345643
-0.00141843
0.01705596
-0.01620863
0.0006353081
-0.001128489
-0.02241477
-0.001169935
0.01701642
-0.01758972
0.0005962813
-0.001143017
-0.02011484
-0.001334619
0.01720343
-0.02017661
0.0003508095
-0.00144052
-0.01824813
-0.001081341
0.01687565
-0.01629719
0.0002302251
-0.001203609
-0.01945105
-0.0009718021
0.01723199
-0.01692768
0.0002563272
-0.001487586
-0.01739089
-0.0008468535
0.0209658
-0.01877749
0.0001376849
-0.001932471
-0.01685006
-0.0009042371
0.01464062
-0.01972538
7.62293e-05
-0.001290508
-0.01578621
-0.00113872
0.01504777
-0.0173839
0.0001169773
-0.0008928466
0.008184941
-0.003429819
0.02163184
-0.01605405
-0.0004356894
-0.005346697
0.0002012483
-0.001734241
0.01267762
-0.01792327
0.05467468
-0.002100863
0.0009601972
0.003090222
0.01416144
-0.01843245
0.05678533
-0.004684187
0.001357491
0.00683613
0.01168959
0.001604927
0.05745047
-0.005808066
0.0004086909
0.007152203
-0.02650011
-0.0003841866
0.02393101
-0.01377825
-0.02408571
-0.003069125
-0.01753187
-0.003795534
0.01586143
-0.01024812
-0.03789591
0.02208106
-0.02298006
-0.0006338191
0.01963763
-0.01710163
-0.000660018
0.0208775
-0.02623753
-0.03413664
0.01284676
-0.01855042
-0.0006227534
0.01547495
-0.02533518
-0.03501842
0.006579697
-0.02411418
-0.0005925407
0.01639079
-0.01696614
-0.0385975
0.0246719
-0.02381378
-0.0007767952
0.02277847
-0.01385657
-0.03569018
0.02105273
-0.01936845
-0.003603356
0.01687105
-0.0133197
-0.02491625
-0.002879374
-0.02420656
-0.0008224844
0.02413929
-0.03887991
0.003015953
-0.001364025
-0.0109618
-0.004953412
0.003404144
-0.02232923
0.002589089
-0.03716677
-0.005303535
0.01788777
-0.001738551
0.00372211
-0.01428145
-0.002930103
0.00995256
-0.01182908
0.005467003
-0.02282378
-0.002291554
0.01139001
-0.006544861
0.005885253
-0.01836639
0.008952067
0.004523212
0.003629566
-0.1100838
-0.002842393
-0.005736327
-0.01984713
0.004871335
-0.03822871
0.004425382
0.008368977
-0.01767459
-0.00101336
-0.02838246
0.0001364385
0.008047883
-0.01855479
-0.000346593
-0.02647607
-0.001229633
0.01051356
-0.01847142
-0.001312379
-0.02623847
-0.001973138
0.01276969
-0.01788997
-0.002049897
-0.02593559
-0.002623666
0.01503019
-0.01710784
-0.002094833
-0.02583623
-0.002261439
0.01573439
-0.01639836
-0.001568419
-0.02544636
-0.002191231
0.0166166
-0.01515215
-0.001386833
-0.02157158
-0.001651122
0.01743637
-0.01925885
-0.001027034
-0.02211653
-0.001390395
0.01437085
-0.01584924
-0.001425956
-0.02156325
-0.001202053
0.01017313
-0.01782624
-0.0005460187
-0.02079064
-0.0009155247
0.01891208
-0.01645015
-0.0004176674
-0.02204904
-0.002452052
0.01610236
-0.01715857
0.001261475
0.0002360311
0.006586364
0.01561555
-0.0142877
0.0009164154
0.0009918183
-0.0008383905
0.01204618
-0.02003548
0.001316713
0.0001797608
-0.006936079
0.01517378
-0.002107522
0.01102209
-0.007676081
0.002750931
-0.03705452
0.01303462
-0.005138788
0.003084499
-0.02285945
0.003878912
-0.01388132
-0.0038726
-0.004326192
0.0182476
-0.002113176
0.005784817
-0.02273028
0.000222307
-0.003102829
0.00963662
-0.01219863
0.005962817
-0.01817283
-0.001341226
-0.002105528
0.01186682
-0.006579489
0.004604797
-0.0004057216
0.008965454
-0.008876774
0.004197235
-0.003683166
-0.01606667
0.007549248
0.003286432
-0.005193048
-0.001246064
0.003316381
0.0116233
0.0005778284
0.001232496
0.0003883838
0.01024177
-0.004097678
0.001722693
0.0006137919
0.01070695
-0.004292485
0.0003223614
-0.0001756884
0.01127544
-0.003490024
-0.00103696
-4.479125e-06
0.01151654
-0.003511409
-0.0007920711
0.0005022252
0.01388156
-0.002913533
-0.0004506279
0.000572017
0.01289709
-0.002647455
0.0006011802
0.0003366929
0.02112168
-0.003696689
0.000367669
0.001288685
0.01334109
-0.002524245
0.0005375784
0.001598112
0.01808027
-0.002869107
-0.0008372744
0.002397255
0.01338623
-0.002047187
0.001287242
0.001663078
0.0196281
-0.003153335
-0.001586941
0.001482052
0.01759711
-0.001884744
-0.002907212
0.001524794
0.02096333
-0.001345057
-0.007740737
0.00244516
0.01630527
-0.0009426891
-0.003488609
0.00199801
0.01858505
-0.001307634
-0.004032365
0.000893387
0.018057
-0.0001438744
-0.002966926
-0.007884294
0.01865564
-0.000214349
-0.01634147
-0.00602115
0.01113865
-0.009007206
-0.008814303
-0.003790767
0.009464765
-0.01206101
-0.009060189
-0.009838862
0.009608355
-0.01248783
-0.008691432
0.004605144
-0.01240546
-0.02580474
0.0003771484
-0.01887161
0.01657976
-0.006927914
-0.007252638
0.0001775294
-0.01404179
0.02253756
-0.02443959
0.01899665
-0.02894679
-0.008822103
-0.02825917
-0.008016256
0.01291707
-0.001437586
-0.02528458
-0.001694356
0.01748487
-0.01542979
-0.001521064
-0.02307532
-0.001602254
0.01764923
-0.01712748
-0.001654293
-0.02244167
-0.001485057
0.01645499
-0.02018555
-0.001343146
-0.02068876
-0.001008165
0.02152996
-0.01615476
-0.0003853747
-0.01097681
-0.003834131
0.01915629
-0.01578391
-0.002885761
0.06473979
-0.005713922
0.01998377
-0.01812244
-0.005918702
-0.07006496
0.006802601
0.01257823
-0.01347662
-0.02331421
-0.0291352
-0.02389919
0.003010555
0.01520622
-0.002573033
-0.009183601
-0.01286319
-0.002514624
0.01558144
-0.018311
-0.006151769
0.01448467
-0.001161279
-3.710057e-05
-0.0003052373
0.00440451
0.01044172
0.00125181
-0.002871645
0.0007741966
0.01365691
0.002266579
-0.002260006
0.0002347867
0.014269
0.001726414
-0.001792658
0.0005626577
0.01377448
0.001311898
-0.001955376
0.0001377347
0.01335612
0.001601252
-0.0009691272
0.001429453
0.01387374
0.002535909
-0.00127359
0.0007773583
0.01446061
0.003133823
-0.009961574
0.002340928
0.01346081
0.002314651
-0.002100338
0.0009907154
0.0159536
0.002891852
-0.003690631
0.002148574
0.01488287
0.002962578
-0.001375318
0.001936427
0.01568898
0.003065419
-0.01109863
0.00197759
0.0145347
0.0001194344
-0.01052681
0.0003578045
0.01475959
0.001218817
-0.01065881
0.002897389
0.01187018
-5.720607e-05
-0.008264567
0.00107905
0.01971261
0.0002397599
-0.01181108
0.001582365
0.01117967
-0.0005501524
-0.01320408
0.0006007758
0.01551158
-0.0007078587
-0.01325821
7.07816e-05
0.01150198
0.01201347
-0.0192398
0.002223852
0.01280081
0.01172265
-0.01998619
0.005614974
0.007557406
0.006867944
-0.01858092
0.006954709
0.006460641
0.0165221
0.001456749
0.008429952
0.004069907
-0.01083044
-0.02228675
0.01580227
-0.03091947
-0.01241119
0.00994006
-0.01641566
0.0144302
-0.02066661
0.02263275
-0.02945804
0.02246522
-0.03173175
-0.002009445
0.003167213
-0.01709882
0.01118465
-0.002905862
-0.02387093
-0.02923339
-0.02282607
0.005908214
0.01613347
-0.00180729
-0.009373674
-0.01158951
0.008184497
-0.02204971
0.02025524
-0.003917603
0.01318656
-0.01707379
-0.01296515
-0.007408423
0.003702131
-0.01104418
0.01555887
-0.007075532
0.01378894
-0.01235583
-0.006526724
-0.007478441
0.0002958093
-0.009683523
0.01453595
-0.01018531
0.01068725
-0.01328946
-0.01153598
-0.01175887
0.002274904
-0.01019274
0.01417603
-0.01030311
0.0119707
-0.01263764
-0.008933259
-0.01078433
0.0006158162
-0.009850074
0.01406717
-0.0103753
0.01122907
-0.01094073
-0.008653281
0.004067206
-0.003048058
-0.0160415
-0.01808153
-0.006130435
0.01445953
-0.001023204
0.007995196
0.00330416
-0.005053072
-0.001313549
9.74992e-05
-0.0005604175
0.004631683
0.01025574
0.002343898
0.01172069
0.0001589647
0.001658045
0.001329319
-0.002856385
0.0007454143
0.01351374
0.0008456111
0.009918433
-0.00432233
0.001556374
0.002227283
-0.002520311
3.945346e-05
0.01403074
0.0004782248
0.01070423
-0.00433987
0.000254672
0.001760423
-0.001443416
0.0006950898
0.01367135
0.0003933081
0.01147579
-0.003298371
-0.0008640798
0.001568047
-0.002014264
-0.0004574638
0.01334092
0.0002211246
0.01161099
-0.003615328
-0.000768223
0.002194387
-0.001072778
0.0005065678
0.01413355
0.0004053726
0.01246116
-0.003029496
-0.0005959861
0.003066279
-0.001404852
-0.0009360095
0.01472351
0.001210205
0.0108599
-0.002478934
0.004623648
0.002675513
-0.01241352
-0.0001566633
0.01415051
0.0009071346
0.01657127
-0.003268848
-0.002516916
0.001153732
-0.002861885
-7.815003e-05
0.01459892
-0.001160768
0.01006489
0.0008129065
-0.0005453042
0.00134451
-0.006856523
0.0007096276
0.01661629
0.001756124
0.01784254
-0.004638883
-0.00208182
0.002344771
-0.01172505
0.00272019
0.01442359
0.001594304
0.01955745
-0.002388715
-0.001238588
0.003510645
-0.002731201
0.002147318
0.01576722
-0.01438632
0.01116919
-0.001607258
-0.007642843
0.01539009
-0.01163681
-7.302324e-05
0.01065531
0.001277346
0.00562343
0.001370267
-0.005694873
-0.002547661
0.005558348
0.002331437
-0.01086985
0.001149172
-0.01270923
-0.005211274
-0.001167185
0.09794405
0.0008414108
0.002057179
0.001604914
-0.007198213
-0.002409074
0.0005940175
-0.004041016
0.002012291
0.01771625
-0.002620591
-0.0007053586
-0.0001360319
-0.01296249
3.176044e-05
-0.0001312059
-0.0001689845
-0.003101566
-0.001482798
-2.776149e-05
0.0002467459
-0.001680954
-0.002371846
5.690793e-06
-0.0008301962
-0.002207012
-0.002540583
7.02087e-06
-0.0009934297
-0.00236003
-0.00249166
1.334209e-05
-0.0008594681
-0.002136841
-0.002489008
1.343673e-05
-0.0009931464
-0.002132945
-0.001829085
8.597216e-07
-0.0005029525
-0.001206252
-0.001415312
5.170702e-05
-0.0003910116
0.0006108219
-0.002349552
-0.005820298
0.0002975864
-0.01892488
-0.001696023
1.217587e-05
6.415819e-05
-0.00122518
-0.00168468
-0.0004406028
0.0003990459
-0.004284042
-0.001342407
5.713116e-05
6.745124e-05
0.0008305114
-0.002438761
-0.005044354
0.0007987359
-0.02070687
-0.002169236
-0.001847266
0.001344077
-0.01008879
-0.0008239563
-0.005611969
0.001005321
-0.01724844
-0.00251913
-0.00142104
0.002397904
-0.008372672
0.001822205
-0.007235931
-0.0001743046
-0.02058603
-0.002684266
-0.003498244
0.003522306
-0.01782202
0.001666416
-0.007008618
0.00105239
-0.01757138
-0.002058053
-0.002618176
-0.0001610026
-0.01607507
-0.0002635412
-0.00462044
-0.003296734
-0.01790925
-0.001010087
-0.001637278
-0.0009728703
-0.01109105
0.001082277
0.0008274366
-0.01265131
0.003196713
0.0005647459
-0.005743051
0.0005429817
-0.004515532
0.002248335
-0.0001201794
-0.0008059992
-3.55771e-05
-0.0005912228
-0.0005387243
-0.0004289518
-0.01130249
-0.0004978995
-0.0001378616
-0.001522011
-0.03306573
-0.0007519303
-0.005314676
-0.003827907
5.172201e-05
-0.0003716014
-0.001445681
0.0006817826
-0.0001392549
-0.002478168
-0.0005852712