/*--------------------------------*- C++ -*----------------------------------*\
  =========                 |
  \\      /  F ield         | OpenFOAM: The Open Source CFD Toolbox
   \\    /   O peration     | Website:  https://openfoam.org
    \\  /    A nd           | Version:  7
     \\/     M anipulation  |
\*---------------------------------------------------------------------------*/
FoamFile
{
    version     2.0;
    format      ascii;
    class       volScalarField;
    location    "0.1";
    object      Uy;
}
// * * * * * * * * * * * * * * * * * * * * * * * * * * * * * * * * * * * * * //

dimensions      [0 1 -1 0 0 0 0];

internalField   nonuniform List<scalar> 
82743
(
-2.352528
-2.343394
-2.154776
-2.01204
-1.790781
-1.648576
-1.513609
-1.435662
-1.367811
-2.225881
-2.216048
-2.059355
-1.928904
-1.686694
-1.540788
-1.4172
-1.361979
-1.307558
-2.148705
-2.154068
-2.024934
-1.900825
-1.561913
-1.408832
-1.305298
-1.273326
-1.2531
-2.108521
-2.120488
-2.025263
-1.922116
-1.460779
-1.186195
-1.106676
-1.157272
-1.169989
-2.0812
-2.121639
-2.123466
-2.148095
-1.133666
-0.786019
-0.7877497
-0.9914977
-1.152295
-2.0876
-2.173181
-2.312018
-2.385793
-1.246098
-0.1755061
-0.2425895
-0.8234536
-1.109595
-2.046723
-2.160571
-2.326266
-2.551806
-3.441198
-1.181242
-1.91103
-2.003477
-2.095937
-2.212269
-2.561491
-1.322154
-1.753384
-1.82248
-1.869821
-1.908482
-2.168626
-1.339592
-1.566856
-1.61505
-1.639812
-1.635763
-1.87114
-1.410429
-1.380732
-1.410655
-1.410072
-1.397351
-1.592423
-1.462792
-1.20572
-1.20976
-1.183049
-1.17691
-1.299861
-1.568506
-1.056809
-1.02759
-0.9383185
-0.9238776
-0.9488135
-2.161319
-0.9358943
-0.8963995
-0.7762272
-0.6253545
-0.0903551
-0.02645046
-0.04944128
-0.2655559
-1.744419
-0.8535343
-0.8272875
-0.7326245
-0.6356003
-0.5245534
-0.5255783
-0.6723025
-1.082415
-1.22172
-0.8012633
-0.7867075
-0.7331501
-0.6612005
-0.6069575
-0.641456
-0.7114581
-0.9543072
-1.016289
-0.7668343
-0.7671892
-0.7337164
-0.7038126
-0.6830856
-0.7099985
-0.7642965
-0.890993
-0.940516
-0.7443449
-0.7514292
-0.7324899
-0.7107765
-0.7021812
-0.7262905
-0.7586535
-0.8343838
-0.8667142
-2.681335
-2.501092
-2.275393
-2.06375
-1.851354
-1.689546
-1.551333
-1.454263
-1.378821
-0.6900171
-2.3496
-2.369699
-2.173976
-2.02583
-1.809788
-1.668061
-1.534828
-1.45102
-1.381269
-0.5540011
-2.208514
-2.229339
-2.071526
-1.947175
-1.694865
-1.554715
-1.429227
-1.374377
-1.317361
-0.5165052
-2.142282
-2.155181
-2.030048
-1.915128
-1.559448
-1.415154
-1.315217
-1.279279
-1.265718
-0.4973121
-2.103263
-2.122458
-2.040879
-1.939346
-1.392526
-1.196128
-1.108181
-1.175501
-1.169533
-0.4877938
-2.091594
-2.133702
-2.144401
-2.13486
-1.061601
-0.8027572
-0.7678163
-0.9452218
-1.122978
-0.4904065
-2.10382
-2.19707
-2.357681
-2.491981
-1.268596
-0.4052774
-0.1798448
-0.7541424
-1.068822
-0.4956765
-2.055144
-2.174794
-2.36919
-2.686616
-3.652698
-1.272679
-0.4790275
-1.909603
-2.013752
-2.106161
-2.312131
-1.308351
-0.4457996
-1.753913
-1.830854
-1.87472
-1.976115
-1.378219
-0.4065172
-1.571817
-1.618823
-1.636151
-1.70001
-1.443186
-0.3618285
-1.389087
-1.415774
-1.399009
-1.445208
-1.519885
-0.3141032
-1.210876
-1.211948
-1.180294
-1.19469
-1.720009
-0.2668906
-1.049898
-1.031395
-0.9401633
-0.8800263
-1.944921
-0.2239416
-0.9275322
-0.9044804
-0.7833046
-0.6231205
-0.142198
-0.1099649
-0.1641866
-0.5406078
-1.421832
-0.1930482
-0.8461032
-0.830553
-0.7436604
-0.6401946
-0.5220094
-0.5090111
-0.6782978
-1.12033
-1.166195
-0.1758019
-0.7944531
-0.7899169
-0.7418833
-0.6749837
-0.6127476
-0.6495793
-0.72638
-0.9640712
-1.047333
-0.1660744
-0.7633704
-0.7665633
-0.73765
-0.7097492
-0.6859244
-0.7101956
-0.7654558
-0.8940711
-0.9386925
-0.1604692
-0.739288
-0.747734
-0.7344421
-0.7154182
-0.7059657
-0.7296674
-0.7619862
-0.8372578
-0.8736232
-2.634944
-2.386835
-2.256462
-2.026341
-1.864192
-1.708892
-1.562914
-1.481561
-1.387596
-0.8150091
-2.276381
-2.295405
-2.090666
-1.969093
-1.756545
-1.624119
-1.495879
-1.419234
-1.349118
-1.382524
-2.097721
-2.191841
-2.063132
-1.930044
-1.691206
-1.550124
-1.42357
-1.370779
-1.311622
-1.220924
-2.058636
-2.135206
-2.012782
-1.890847
-1.543082
-1.396961
-1.299229
-1.268804
-1.251461
-1.197416
-2.017037
-2.115436
-2.038085
-1.927295
-1.410497
-1.196446
-1.099989
-1.168777
-1.171536
-1.169325
-2.019716
-2.132333
-2.156433
-2.131273
-1.102285
-0.805689
-0.7947077
-0.9607721
-1.139204
-1.200027
-2.004708
-2.184527
-2.384901
-2.485739
-1.38619
-0.4685766
-0.1877803
-0.7575185
-1.072003
-1.170861
-1.990376
-2.184094
-2.395072
-2.65234
-3.568561
-1.294768
-1.119063
-1.836779
-2.021022
-2.110532
-2.281678
-1.305383
-1.033091
-1.69841
-1.830059
-1.868766
-1.988721
-1.392483
-1.34926
-0.9304154
-1.515647
-1.609373
-1.643093
-1.627892
-1.404826
-1.444753
-0.8265145
-1.329929
-1.422668
-1.391112
-1.471993
-1.434352
-1.570125
-0.7228663
-1.151822
-1.213166
-1.190579
-1.129875
-1.809154
-0.6291467
-1.002396
-1.024602
-0.9400381
-0.8452713
-1.947606
-0.5496379
-0.900751
-0.908266
-0.7738554
-0.620926
-0.2197217
-0.1139547
-0.1733505
-0.764074
-1.644784
-0.490593
-0.8177762
-0.8232273
-0.7353151
-0.6489359
-0.5157196
-0.5079251
-0.6828221
-1.045123
-1.200866
-0.4710204
-0.7624257
-0.7856595
-0.7404259
-0.6662929
-0.6025443
-0.6432275
-0.7278128
-0.9612013
-1.036373
-0.4393901
-0.7325418
-0.7657016
-0.7362788
-0.7092933
-0.6823129
-0.7053967
-0.7647173
-0.8825851
-0.9425872
-0.429674
-0.7063388
-0.7488731
-0.735125
-0.7132128
-0.7028011
-0.7241785
-0.759517
-0.8348714
-0.8702144
-2.636751
-2.51866
-2.24551
-2.094585
-1.865018
-1.722697
-1.576815
-1.482435
-1.397868
-0.788677
-2.282917
-2.28735
-2.140672
-2.011036
-1.792087
-1.656902
-1.526044
-1.445919
-1.374075
-1.367818
-2.109483
-2.209573
-2.075251
-1.951179
-1.697636
-1.561012
-1.433389
-1.376592
-1.318342
-1.197512
-2.074962
-2.140655
-2.023926
-1.906607
-1.54738
-1.408678
-1.313458
-1.278789
-1.262763
-1.205988
-2.026326
-2.115307
-2.040902
-1.936411
-1.388389
-1.20722
-1.112957
-1.175895
-1.175235
-1.166268
-2.014064
-2.119097
-2.144359
-2.131513
-1.031211
-0.8115087
-0.7925939
-0.9573641
-1.139816
-1.181507
-2.017354
-2.178451
-2.370799
-2.472467
-1.158035
-0.5209567
-0.1595107
-0.7391347
-1.071283
-1.160046
-1.979874
-2.173953
-2.390786
-2.63991
-3.513457
-1.302517
-1.10254
-1.835839
-2.023521
-2.104244
-2.292275
-1.312936
-1.019706
-1.698203
-1.83004
-1.865322
-1.993921
-1.403545
-1.335152
-0.91696
-1.522803
-1.610875
-1.649833
-1.609973
-1.416797
-1.448863
-0.8138908
-1.342259
-1.428425
-1.381623
-1.468967
-1.416057
-1.601476
-0.7082478
-1.171607
-1.218664
-1.180479
-1.096426
-1.826909
-0.6137729
-1.008736
-1.0272
-0.9444363
-0.829609
-1.949209
-0.5392327
-0.8808652
-0.8968269
-0.7830605
-0.6200853
-0.2222808
-0.111332
-0.1722801
-0.800167
-1.631552
-0.4863052
-0.8065026
-0.8197467
-0.7410272
-0.6533031
-0.5196932
-0.5104674
-0.6856611
-1.04862
-1.207709
-0.4542599
-0.7554831
-0.7816386
-0.7405648
-0.671735
-0.6084396
-0.6481434
-0.7340206
-0.9597581
-1.042597
-0.4316101
-0.7249237
-0.7600671
-0.7330303
-0.7135077
-0.6865625
-0.707834
-0.7668273
-0.8829777
-0.9446823
-0.4181607
-0.7046759
-0.7424185
-0.7286827
-0.7171131
-0.7082414
-0.727793
-0.7625351
-0.8363407
-0.8731614
-2.585579
-2.39993
-2.261456
-2.063078
-1.878296
-1.740887
-1.592165
-1.499053
-1.414165
-0.8697004
-2.245171
-2.295995
-2.117664
-1.988618
-1.776399
-1.644907
-1.515598
-1.43773
-1.366812
-1.343789
-2.081386
-2.176089
-2.062546
-1.94113
-1.696817
-1.562933
-1.435514
-1.380038
-1.32044
-1.18869
-2.042916
-2.134858
-2.018522
-1.895903
-1.540524
-1.404777
-1.307797
-1.276125
-1.257623
-1.158307
-2.006315
-2.113371
-2.039547
-1.930293
-1.392115
-1.210828
-1.117356
-1.177972
-1.174729
-1.128667
-2.005865
-2.130308
-2.150754
-2.128414
-1.047092
-0.8149348
-0.7962656
-0.9588942
-1.140904
-1.168468
-1.985781
-2.174331
-2.379303
-2.474543
-1.196299
-0.5347925
-0.1681304
-0.7412618
-1.076069
-1.140608
-1.975464
-2.175566
-2.393356
-2.641334
-3.566467
-1.305572
-1.090909
-1.820745
-2.02123
-2.102509
-2.297027
-1.314749
-1.008266
-1.692888
-1.826444
-1.862222
-1.984901
-1.392291
-1.338107
-0.9062158
-1.513575
-1.606519
-1.65122
-1.596182
-1.407971
-1.452527
-0.8059181
-1.331091
-1.425872
-1.381762
-1.461301
-1.402396
-1.614885
-0.7068497
-1.152561
-1.214948
-1.190028
-1.088716
-1.836847
-0.6214245
-0.9922991
-1.023472
-0.945556
-0.8257951
-1.959954
-0.5334247
-0.8908333
-0.9107405
-0.7753239
-0.614043
-0.1998007
-0.1119178
-0.1733901
-0.8073598
-1.644139
-0.4797588
-0.8155159
-0.8217111
-0.7371472
-0.6535503
-0.5160798
-0.5093128
-0.6855071
-1.051739
-1.203044
-0.460524
-0.7501416
-0.7886239
-0.7426946
-0.6680557
-0.6038737
-0.6454349
-0.7334542
-0.9588981
-1.04364
-0.4334297
-0.7290103
-0.7647447
-0.7361896
-0.7115629
-0.683712
-0.7050773
-0.7656912
-0.8813555
-0.9438002
-0.4157479
-0.7007494
-0.7480304
-0.7345665
-0.7160814
-0.70577
-0.7247087
-0.7612566
-0.8351362
-0.8724526
-2.566988
-2.498847
-2.247911
-2.103615
-1.872847
-1.732859
-1.585661
-1.492608
-1.407058
-0.9743719
-2.280311
-2.295491
-2.129746
-2.000244
-1.785694
-1.652639
-1.522139
-1.443193
-1.371362
-1.331853
-2.103054
-2.194191
-2.069062
-1.948051
-1.701192
-1.5611
-1.43302
-1.375531
-1.316898
-1.172108
-2.06066
-2.141514
-2.020793
-1.896051
-1.554598
-1.406704
-1.310921
-1.277526
-1.2603
-1.188182
-2.016706
-2.112979
-2.040049
-1.929334
-1.417176
-1.202523
-1.110217
-1.174949
-1.172497
-1.150173
-1.999449
-2.119045
-2.147105
-2.112072
-1.09774
-0.8081467
-0.7867066
-0.9576094
-1.141233
-1.169664
-1.999227
-2.172922
-2.371742
-2.46566
-1.323567
-0.4601599
-0.1735781
-0.74977
-1.07592
-1.144489
-1.977042
-2.172111
-2.391843
-2.646311
-3.572951
-1.304751
-1.089661
-1.825555
-2.023317
-2.101861
-2.300047
-1.317985
-1.0077
-1.69609
-1.825306
-1.860555
-1.985834
-1.3907
-1.338408
-0.9049414
-1.515721
-1.606375
-1.652883
-1.592696
-1.414543
-1.45553
-0.8072344
-1.332351
-1.425138
-1.380661
-1.4625
-1.4028
-1.618092
-0.7092748
-1.153019
-1.213584
-1.188122
-1.086415
-1.839015
-0.624828
-0.9887248
-1.02285
-0.9449602
-0.8194397
-1.961583
-0.5332961
-0.8927086
-0.9106359
-0.7751645
-0.6140126
-0.1629126
-0.11189
-0.1731562
-0.8062323
-1.646337
-0.4796661
-0.8125403
-0.8214081
-0.7372053
-0.6538547
-0.5165278
-0.5100418
-0.6861876
-1.052701
-1.203945
-0.4630341
-0.756634
-0.7878642
-0.7429467
-0.6685228
-0.6044304
-0.6458685
-0.7341145
-0.9590072
-1.044637
-0.4265076
-0.73167
-0.7654617
-0.7373189
-0.7124381
-0.6843484
-0.7055171
-0.7660876
-0.88132
-0.9442261
-0.409085
-0.7052396
-0.748415
-0.7354333
-0.7176452
-0.7066707
-0.7253595
-0.7618781
-0.8353619
-0.8730815
-2.561792
-2.399745
-2.257935
-2.068986
-1.876288
-1.73855
-1.589636
-1.496572
-1.411812
-0.953344
-2.264555
-2.302921
-2.121081
-1.994713
-1.78077
-1.648587
-1.518083
-1.44035
-1.368625
-1.35543
-2.092369
-2.18008
-2.066121
-1.946456
-1.703177
-1.56667
-1.439206
-1.382636
-1.323248
-1.188661
-2.047235
-2.137803
-2.016775
-1.896256
-1.548945
-1.407102
-1.311015
-1.277634
-1.260504
-1.15798
-2.007386
-2.113378
-2.038334
-1.930538
-1.40743
-1.213366
-1.119178
-1.178208
-1.177401
-1.126842
-2.006216
-2.12727
-2.14899
-2.113435
-1.059953
-0.8152862
-0.7968739
-0.960275
-1.140506
-1.166968
-1.986008
-2.171692
-2.375392
-2.463868
-1.261695
-0.5569765
-0.17363
-0.7375942
-1.074188
-1.139311
-1.975651
-2.171986
-2.392861
-2.650204
-3.557432
-1.300082
-1.088463
-1.822805
-2.017562
-2.10672
-2.301179
-1.31375
-1.004509
-1.698235
-1.825805
-1.865365
-1.995758
-1.401859
-1.334604
-0.8937855
-1.524825
-1.604941
-1.651772
-1.614672
-1.410612
-1.451541
-0.7929452
-1.35203
-1.422418
-1.385154
-1.472403
-1.398498
-1.604015
-0.6976878
-1.177739
-1.215052
-1.18573
-1.090126
-1.834971
-0.6111877
-1.013374
-1.024657
-0.9458126
-0.8303956
-1.952329
-0.5413059
-0.8830702
-0.8973212
-0.7832759
-0.6193268
-0.1706385
-0.1121255
-0.1729922
-0.8067276
-1.640171
-0.4919502
-0.8044929
-0.8195156
-0.741147
-0.6536015
-0.5195155
-0.5111773
-0.6863079
-1.052723
-1.203775
-0.4638541
-0.7523708
-0.7827705
-0.7412384
-0.6718295
-0.6084416
-0.6483612
-0.7357877
-0.9599699
-1.045782
-0.4342131
-0.7274399
-0.7615033
-0.7336264
-0.713199
-0.6857823
-0.7066991
-0.7667455
-0.8815852
-0.9449412
-0.4158262
-0.7073848
-0.7448135
-0.7317578
-0.7177311
-0.7074681
-0.7264658
-0.7626357
-0.8359461
-0.8736384
-2.569045
-2.541471
-2.243552
-2.081302
-1.85798
-1.704532
-1.567728
-1.461847
-1.386731
-0.7744028
-2.243261
-2.301574
-2.13209
-1.995632
-1.784686
-1.64345
-1.519124
-1.432145
-1.369377
-1.365176
-2.09572
-2.207963
-2.060226
-1.933715
-1.687877
-1.548211
-1.420652
-1.362174
-1.306901
-1.193442
-2.060701
-2.13889
-2.019927
-1.894036
-1.55639
-1.407007
-1.313191
-1.274185
-1.260477
-1.207215
-2.016058
-2.11234
-2.039979
-1.92946
-1.414512
-1.203011
-1.101656
-1.166729
-1.171448
-1.17141
-2.009716
-2.120416
-2.14901
-2.113812
-1.103957
-0.8285583
-0.800418
-0.9623552
-1.143675
-1.187709
-2.013997
-2.18288
-2.374093
-2.471655
-1.274272
-0.5279962
-0.1846987
-0.7440681
-1.072336
-1.163033
-1.986065
-2.179283
-2.395777
-2.660319
-3.535167
-1.288125
-1.105692
-1.839222
-2.022071
-2.111681
-2.287394
-1.307114
-1.02434
-1.703447
-1.829095
-1.869338
-1.989567
-1.389253
-1.34616
-0.9235147
-1.513592
-1.609831
-1.643026
-1.624586
-1.398557
-1.445066
-0.848575
-1.329888
-1.424524
-1.390006
-1.470182
-1.415304
-1.564158
-0.7307052
-1.145446
-1.213328
-1.192
-1.08899
-1.815844
-0.6354139
-0.9934382
-1.021454
-0.9424348
-0.8316814
-1.937171
-0.5488962
-0.900263
-0.9087908
-0.7741355
-0.6163355
-0.1817696
-0.1131504
-0.1716343
-0.8024738
-1.633674
-0.495541
-0.8150898
-0.8212205
-0.7344564
-0.6492712
-0.5164975
-0.5098383
-0.6832851
-1.047887
-1.20137
-0.4756705
-0.7814038
-0.7867102
-0.7408287
-0.6671911
-0.603894
-0.6441868
-0.731807
-0.957082
-1.043705
-0.4402399
-0.7299107
-0.767111
-0.7372166
-0.7095434
-0.6825617
-0.7050372
-0.7652318
-0.880173
-0.9444345
-0.4382654
-0.7217997
-0.7489938
-0.7385166
-0.7164274
-0.704106
-0.7246071
-0.7612363
-0.8346265
-0.8727232
-2.581729
-2.381453
-2.246993
-2.031133
-1.845489
-1.69629
-1.554196
-1.467387
-1.37517
-0.784254
-2.29855
-2.307757
-2.11266
-1.984185
-1.76604
-1.629278
-1.499751
-1.419531
-1.348685
-1.405606
-2.104996
-2.210771
-2.07751
-1.947718
-1.706667
-1.565973
-1.441937
-1.385504
-1.326092
-1.23498
-2.068838
-2.13952
-2.01337
-1.898238
-1.54933
-1.402204
-1.30555
-1.275351
-1.257675
-1.203889
-2.025802
-2.11659
-2.038117
-1.936701
-1.407924
-1.202388
-1.113731
-1.17802
-1.172916
-1.177618
-2.028696
-2.128763
-2.148587
-2.118968
-1.059596
-0.7953437
-0.7791466
-0.9437296
-1.123229
-1.206477
-2.011525
-2.177581
-2.363458
-2.485683
-1.267266
-0.510404
-0.1696326
-0.7467283
-1.06252
-1.176268
-1.99072
-2.168976
-2.37327
-2.697283
-3.567286
-1.279586
-1.111803
-1.844875
-2.002875
-2.109862
-2.347241
-1.315138
-1.030311
-1.71108
-1.824191
-1.871553
-2.016653
-1.365624
-0.880238
-1.552894
-1.60677
-1.637313
-1.713982
-1.451117
-0.7567932
-1.409045
-1.414654
-1.410287
-1.413889
-1.542358
-0.2792382
-1.229758
-1.206941
-1.190172
-1.101417
-1.810611
-0.2596724
-1.058372
-1.022275
-0.9437793
-0.845068
-1.917538
-0.2164622
-0.9336038
-0.9026456
-0.7829222
-0.621413
-0.1684412
-0.109661
-0.1682972
-0.795079
-1.62084
-0.1790569
-0.8477784
-0.8295915
-0.7438665
-0.6421536
-0.5214762
-0.5093323
-0.6793219
-1.041979
-1.20956
-0.1633154
-0.794277
-0.7895959
-0.7418421
-0.6756228
-0.6140038
-0.652381
-0.7388577
-0.9651704
-1.051934
-0.1527838
-0.7626287
-0.7669863
-0.7361315
-0.7096611
-0.6851437
-0.7074277
-0.7662058
-0.8799948
-0.9467832
-0.1459464
-0.7342694
-0.7491885
-0.7317767
-0.7162321
-0.7054309
-0.7291209
-0.7639838
-0.8369824
-0.8747664
-2.686097
-2.555065
-2.318427
-2.110071
-1.890169
-1.735299
-1.594152
-1.498936
-1.410153
-0.6737632
-2.340314
-2.379713
-2.178437
-2.018917
-1.82608
-1.67038
-1.544756
-1.455252
-1.399394
-0.4871176
-2.193828
-2.20765
-2.048079
-1.914427
-1.678044
-1.52825
-1.405016
-1.345429
-1.297691
-0.4342783
-2.138265
-2.155237
-2.030767
-1.896307
-1.574291
-1.409985
-1.315072
-1.273278
-1.262384
-0.4478619
-2.097434
-2.114451
-2.027197
-1.915105
-1.441194
-1.1864
-1.102519
-1.152507
-1.171093
-0.3996857
-2.086168
-2.11458
-2.120895
-2.128728
-1.188967
-0.7893749
-0.7976023
-0.9907625
-1.161994
-0.3842667
-2.08747
-2.173734
-2.30712
-2.498482
-1.33593
-0.3289037
-0.245824
-0.7513486
-1.118281
-0.3769442
-2.038556
-2.158188
-2.320218
-2.695884
-3.63014
-1.274867
-0.3759505
-1.903928
-2.004054
-2.09114
-2.318064
-1.338486
-0.3307106
-1.747836
-1.821017
-1.869316
-1.999342
-1.371187
-0.3185766
-1.567739
-1.616103
-1.638385
-1.716427
-1.428976
-0.2707244
-1.391039
-1.413445
-1.411705
-1.444567
-1.505501
-0.2534606
-1.209435
-1.210506
-1.192116
-1.143592
-1.651074
-0.03381449
-1.057095
-1.024363
-0.9470208
-0.8703248
-2.177769
-0.02571959
-0.9355193
-0.8994421
-0.7748166
-0.6377448
-0.2312344
-0.1105341
-0.1495495
-0.7348375
-1.690319
-0.01333759
-0.8538258
-0.8266346
-0.7319399
-0.6377612
-0.5249424
-0.5233806
-0.6735938
-1.035115
-1.221434
-0.01239298
-0.8027781
-0.7891131
-0.7324462
-0.6620852
-0.6089401
-0.6462433
-0.7253694
-0.9543222
-1.036196
-0.01389962
-0.7669745
-0.7675051
-0.7330473
-0.7033438
-0.682429
-0.7075479
-0.7648836
-0.8804712
-0.9447974
-0.01137125
-0.7468208
-0.7524676
-0.7344224
-0.7143518
-0.7037146
-0.7272518
-0.7618378
-0.8347562
-0.8710702
-2.210686
-2.713897
-0.097301
-2.290739
-2.554084
-2.443897
-2.740593
-2.744591
-2.578012
-2.606308
-2.434202
-2.409167
-2.623787
-2.533946
-2.473928
-2.468926
-2.208969
-2.130763
-2.365457
-2.272841
-2.281033
-2.241702
-2.054503
-2.041566
-2.153629
-2.099681
-2.090644
-2.086918
-1.834398
-1.770562
-1.945213
-1.883922
-1.890968
-1.868153
-1.688007
-1.683087
-1.772865
-1.732902
-1.728325
-1.718849
-1.555131
-1.536908
-1.627883
-1.592414
-1.587825
-1.575935
-1.468657
-1.47561
-1.521803
-1.492471
-1.493696
-1.485015
-1.392866
-1.435214
-1.413837
-2.079413
-1.984872
-0.08264421
-2.149377
-0.04674686
-2.025103
-1.912566
-1.847063
-0.04900341
-1.93519
-0.04221458
-1.876529
-1.8099
-1.764887
-0.03274578
-1.824112
-0.03978833
-1.796388
-1.753346
-1.725585
-0.03120481
-1.769387
-0.03997915
-1.756235
-1.723309
-1.689855
-0.0300845
-1.740307
-0.04043862
-1.732403
-1.703026
-1.696238
-0.04622708
-1.719079
-0.04566556
-1.729398
-0.8616744
-3.893934
-1.308045
-0.9530882
-4.309587
-0.439144
-0.2326446
-0.3866387
-0.9995024
-1.21672
-0.7716143
-0.9661457
-1.203822
-1.67071
-1.594093
-0.06090479
-1.697255
-0.050682
-1.655988
-2.642975
-3.620815
-1.562761
-1.502093
-0.06261457
-1.609334
-0.05132587
-1.562716
-2.221895
-1.456859
-1.370524
-0.05906576
-1.497409
-0.0455342
-1.418695
-1.917391
-1.321892
-1.228039
-0.05213876
-1.35381
-0.04070387
-1.267088
-1.637394
-1.18279
-1.082627
-0.0367084
-1.202625
-0.03442001
-1.111391
-1.353825
-1.041445
-0.9573829
-0.01874132
-1.053304
-0.03168319
-0.9694732
-1.026436
-0.9171228
-0.8548509
-0.01628156
-0.9183411
-0.0245453
-0.8490805
-0.184185
-2.221111
-2.670388
-1.962615
-2.134726
-0.8104765
-0.7724497
-0.01426793
-0.8061578
-0.01875676
-0.7506717
-0.7279238
-0.7162071
-0.01256122
-0.7231513
-0.01570855
-0.6885348
-0.6750405
-0.6781462
-0.01124699
-0.6728497
-0.01430535
-0.6486771
-0.6405365
-0.6501197
-0.01041342
-0.6424195
-0.01411868
-0.6212445
-0.6170322
-0.6288911
-0.009977485
-0.6187373
-0.6025873
-2.631249
-0.1064476
-2.205925
-2.62334
-0.1811884
-2.216269
-0.9910947
-4.304625
-1.256722
-1.000777
-4.424898
-0.9788755
-1.230585
-0.7551721
-0.9722199
-1.262125
-3.565001
-0.3098452
-0.3101289
-2.006113
-2.169094
-2.034308
-2.28219
-0.02147322
-0.3018252
-0.3462053
-0.1721192
-0.01748367
-0.3098024
-0.3428329
-2.58689
-0.07589101
-2.13925
-2.614479
-0.2225825
-2.129033
-0.9970505
-4.262763
-1.320213
-0.9801481
-4.336898
-0.9819494
-1.223263
-0.7516225
-0.9754031
-1.211226
-3.502208
-0.2906711
-0.2704472
-1.887311
-2.267605
-1.813833
-2.266972
-0.02060517
-0.3111763
-0.3455012
-0.180464
-0.01895452
-0.3121376
-0.3447606
-1.778686
-1.109118
-1.418898
-0.7852823
-1.776405
-1.090891
-1.407932
-2.60004
-0.1295313
-2.138483
-2.61076
-0.2267552
-2.125782
-0.9718741
-4.247188
-1.193825
-0.9857185
-4.332945
-0.9680929
-1.212726
-0.7427169
-0.9655688
-1.202353
-3.495784
-0.3298114
-0.2644894
-0.0180963
-0.3069438
-0.3425342
-0.1748422
-0.01888613
-0.307609
-0.3426219
-1.831184
-1.108179
-1.357252
-0.8036032
-1.793641
-1.110932
-1.355429
-2.620638
-0.08735572
-2.158949
-2.629532
-0.1538975
-2.156931
-0.9799087
-4.270385
-1.253029
-0.9962893
-4.338453
-0.9658737
-1.211018
-0.7475195
-0.9655317
-1.205329
-3.537418
-0.280364
-0.2577297
-0.02027021
-0.3076018
-0.3413131
-0.1762009
-0.02065864
-0.3073006
-0.3411411
-1.803062
-1.117482
-1.350553
-0.8063233
-1.79491
-1.116137
-1.361609
-2.623279
-0.09683321
-2.138932
-2.624852
-0.1758707
-2.153657
-0.989101
-4.338625
-1.353219
-1.015468
-4.3338
-0.9649411
-1.206514
-0.7453669
-0.9674071
-1.207295
-3.602251
-0.3019716
-0.2740087
-0.02061993
-0.3070084
-0.34089
-0.2000978
-0.02007973
-0.3081896
-0.3419401
-1.796471
-1.11779
-1.361087
-0.8077287
-1.798992
-1.119866
-1.35779
-2.612687
-0.08881967
-2.140778
-2.605673
-0.1800593
-2.18014
-0.9923407
-4.379857
-1.278925
-0.9382594
-4.293527
-0.9680661
-1.20515
-0.7364554
-0.9704631
-1.208934
-3.582818
-0.2710267
-0.3319544
-0.01819091
-0.3065386
-0.3415517
-0.2210399
-0.01806478
-0.3066946
-0.3421282
-1.816198
-1.118426
-1.357109
-0.8061469
-1.814674
-1.117365
-1.35714
-2.616353
-0.1098627
-2.143437
-2.587529
-0.09717022
-2.130626
-1.020735
-4.387915
-1.439168
-1.040159
-4.331363
-0.9720104
-1.212271
-0.7479971
-0.9782067
-1.216225
-3.561173
-0.2640401
-0.2770277
-0.01887163
-0.3107963
-0.3434151
-0.2115379
-0.02087088
-0.3103951
-0.3444981
-1.840881
-1.110364
-1.381728
-0.8081633
-1.89409
-1.120135
-1.349779
-2.621271
-0.1838131
-2.152816
-2.644921
-0.09529078
-2.148066
-1.038646
-4.33402
-1.156111
-0.9727434
-4.315464
-0.9706046
-1.254821
-0.7512767
-0.9762873
-1.227167
-3.661235
-0.3020227
-0.285107
-0.01850006
-0.30594
-0.3394392
-0.2004596
-0.01857399
-0.3054386
-0.3464283
-1.897744
-1.093253
-1.358806
-0.7688749
-1.952597
-1.070525
-1.378174
-2.654496
-0.1589408
-2.222202
-2.571788
-2.239083
-1.578886
-1.540541
-1.522411
-1.578334
-1.57867
-1.466048
-1.443319
-1.417748
-1.490489
-1.494842
-1.877725
-0.4424383
-1.798987
-1.908506
-1.852879
-1.764099
-0.4027166
-1.726662
-1.825725
-1.808331
-1.650707
-0.4105218
-1.664485
-1.720572
-1.72385
-0.9757654
-4.334643
-1.483217
-0.7726482
-3.880654
-0.1015514
-0.1963139
-0.09692298
-0.353657
-0.2556315
-0.4397602
-0.9644253
-1.215477
-0.8006374
-1.010404
-1.248515
-1.63691
-0.4151976
-1.601618
-1.694027
-1.631963
-3.466022
-2.657299
-2.58156
-2.106828
-2.033207
-1.738084
-1.538243
-1.19893
-0.9309325
-0.02265529
-0.8701456
-0.9186981
-0.8539794
-0.3399667
-0.2928396
-1.988819
-2.254962
-2.211334
-2.787371
-0.8409194
-0.02304507
-0.784565
-0.8214816
-0.7772837
-0.02949173
-0.3485292
-0.3862686
-0.1263761
-0.03532271
-0.3173149
-0.3712491
-2.017609
-1.092715
-1.500144
-0.2081462
-2.2187
-0.9745932
-1.369344
-0.7299485
-0.01617898
-0.6934774
-0.7261296
-0.7173026
-0.6771231
-0.01997046
-0.6673019
-0.6762643
-0.0003983725
-0.689343
-0.6519702
-0.0139735
-0.6217273
-0.0004712187
-0.6524568
-0.6510899
-0.616431
-0.02177771
-0.614721
-0.6146251
-0.6301246
-0.6312011
-0.6647988
-2.608502
-2.546015
-2.612333
-2.603718
-2.475471
-2.482898
-2.531925
-2.506967
-2.26851
-2.273865
-2.334867
-2.256382
-2.071207
-2.09333
-2.111104
-2.088636
-1.861386
-1.892617
-1.935991
-1.875053
-1.697239
-1.730938
-1.756116
-1.725621
-1.559952
-1.601073
-1.625483
-1.594021
-1.46843
-1.497642
-1.52206
-1.501365
-1.390958
-1.420293
-1.43816
-1.422927
-0.5635455
-0.6206327
-0.6194033
-0.5299418
-0.4871817
-0.5488166
-0.5062203
-0.477748
-0.4525511
-0.5059613
-0.4672491
-0.4451076
-0.437608
-0.4799062
-0.4502439
-0.4269619
-0.4378037
-0.4684039
-0.4516083
-0.4202494
-0.4465677
-0.4601516
-0.4578349
-0.4150896
-2.562614
-2.577455
-3.466655
-2.510643
-2.593426
-2.718094
-3.524893
-0.04771227
-0.3166484
-0.08490561
-0.4669579
-0.465527
-0.4902239
-0.4251718
-3.202584
-2.384049
-2.555899
-2.683165
-3.332627
-2.488728
-2.668322
-3.001919
-3.716088
-3.05042
-1.269039
-1.335008
-1.309034
-1.325247
-0.4498581
-0.4512497
-0.4826434
-0.3881786
-2.420208
-2.064322
-2.105985
-2.30426
-2.529678
-2.143876
-2.200436
-2.398556
-2.606326
-2.418979
-1.329771
-1.370507
-1.312399
-1.345114
-0.4152575
-0.4145111
-0.4526167
-0.3631488
-2.017722
-1.796924
-1.795386
-1.977582
-2.114023
-1.838408
-1.893654
-2.060312
-2.191888
-2.067246
-1.394351
-1.424988
-1.344263
-1.393845
-0.368808
-0.3765076
-0.409211
-0.3249883
-1.718108
-1.559647
-1.529055
-1.681486
-1.812662
-1.584355
-1.612601
-1.782932
-1.881175
-1.77791
-1.464159
-1.483623
-1.385073
-1.430829
-0.3175205
-0.3388903
-0.359958
-0.2819825
-1.450124
-1.327019
-1.270461
-1.408349
-1.530439
-1.331565
-1.343379
-1.515775
-1.597175
-1.502682
-1.475404
-1.446852
-1.453157
-1.47791
-0.2643121
-0.2996241
-0.3050629
-0.2455929
-1.17565
-1.061253
-0.9880805
-1.157835
-1.235969
-1.069478
-1.001261
-1.210538
-1.305569
-1.196257
-1.435318
-1.829074
-1.558077
-1.634805
-0.217319
-0.2645805
-0.2523195
-0.2146981
-0.866142
-0.7275998
-0.4657448
-0.8819253
-0.8851349
-0.7521051
-0.4548476
-0.7827146
-0.9549905
-0.7616608
-0.1256331
-0.5479869
-0.2256584
0.0893203
-0.177305
-0.2321185
-0.2116237
-0.1891911
-0.03214596
-0.3273233
-0.3730319
-0.1595068
-0.03491316
-0.3531887
-0.3856235
-0.04812502
-0.2629564
-0.3697726
-0.1115357
-0.08300954
-0.3412042
-0.3705526
-0.227285
-0.4033143
-0.5895192
-0.1413621
-0.437345
-0.4613626
-0.6476628
-2.157169
-1.023719
-1.398904
-0.4956105
-1.857635
-1.268036
-1.306292
-0.1489255
-0.2003776
-0.1831198
-0.1694347
-0.13472
-0.1819493
-0.1686378
-0.1570497
-0.1260905
-0.1695108
-0.1586787
-0.1485963
-0.1225043
-0.1627077
-0.1530696
-0.1435481
-0.6577463
-0.6813626
-2.535813
-2.694326
-3.453655
-2.492829
-2.505568
-2.696829
-3.468781
-0.329824
-0.1550883
-0.3468173
-3.269968
-2.496538
-2.661908
-2.692133
-3.320992
-2.501478
-2.699505
-3.562079
-1.330345
-1.296113
-1.377521
-1.36018
-0.8211815
-0.7297388
-0.452539
-0.8530024
-0.8343792
-0.7272606
-0.4784086
-0.4299198
-0.5717612
-0.546783
-0.619204
-0.447946
-0.5661487
-0.5480016
-0.2118349
-0.08918967
-0.2133585
-0.2097935
-0.2207048
-0.09137524
-0.2040021
-0.4820245
-0.4048702
-0.6200906
-0.1641761
-0.4549438
-0.4063992
-0.6391763
-1.815432
-1.237733
-1.191821
-0.5478682
-1.85743
-1.237076
-1.222685
-0.6441196
-0.6976174
-2.460811
-2.678517
-3.510919
-2.488012
-2.487962
-2.680473
-3.399092
-0.3573715
-0.1754
-0.3813426
-3.243494
-2.43931
-2.608899
-2.650445
-3.256532
-2.437825
-2.620042
-3.486507
-1.335572
-1.273073
-1.321081
-1.267753
-0.8263088
-0.7273404
-0.4838846
-0.8350719
-0.8295887
-0.7205128
-0.4795172
-0.4539018
-0.5626366
-0.5578739
-0.6171203
-0.4489306
-0.5629997
-0.5586917
-0.2160139
-0.09146801
-0.21034
-0.1746806
-0.2187667
-0.08820549
-0.2077956
-0.3897413
-0.4096266
-0.7047132
-0.1692054
-0.3813319
-0.4129475
-0.718856
-1.499413
-2.969455
-1.074103
-0.7800533
-1.537915
-2.915778
-1.078421
-0.720231
-0.7172204
-2.508799
-2.672435
-3.449698
-2.471514
-2.502305
-2.67235
-3.419705
-0.3462611
-0.162405
-0.3646673
-3.247404
-2.438259
-2.627554
-2.641305
-3.262941
-2.441924
-2.639036
-3.485174
-1.32476
-1.270981
-1.315268
-1.268608
-0.8152296
-0.722282
-0.4829043
-0.8318975
-0.8128039
-0.7207614
-0.4792565
-1.886549
-2.305249
-1.833652
-2.288861
-0.4474783
-0.5630304
-0.5583573
-0.6193304
-0.4453021
-0.5625494
-0.5582579
-0.2142614
-0.08852975
-0.2021766
-0.1852809
-0.2141085
-0.08878726
-0.2023515
-0.385692
-0.4094456
-0.7150469
-0.172117
-0.3844517
-0.4122316
-0.7177077
-1.516516
-2.944961
-1.117379
-0.8004935
-1.51191
-2.962708
-1.116371
-0.7127133
-0.7332873
-2.501761
-2.672757
-3.430732
-2.470787
-2.480207
-2.669451
-3.439689
-0.3661862
-0.1678185
-0.37301
-3.266773
-2.441749
-2.639948
-2.642778
-3.277786
-2.441637
-2.643413
-3.507811
-1.329123
-1.273049
-1.323679
-1.268801
-0.825004
-0.7156446
-0.4749282
-0.8248048
-0.8087802
-0.7170623
-0.4746371
-1.823725
-2.290179
-1.848709
-2.29607
-0.4440291
-0.5601116
-0.5603805
-0.6153198
-0.4429884
-0.5593277
-0.5596255
-0.2118816
-0.08770118
-0.2062116
-0.1649702
-0.2119409
-0.08689111
-0.2051745
-0.3864872
-0.4111385
-0.7164754
-0.1729054
-0.3860573
-0.4118805
-0.7174586
-1.524885
-2.943649
-1.124986
-0.8078181
-1.521364
-2.962897
-1.125475
-0.7292669
-0.7424854
-2.443759
-2.663733
-3.426456
-2.462157
-2.426007
-2.663423
-3.531297
-0.3728045
-0.1774885
-0.375976
-3.281228
-2.443533
-2.646958
-2.649585
-3.285594
-2.445026
-2.649908
-3.557277
-1.324312
-1.269244
-1.324902
-1.272278
-0.8032181
-0.7163531
-0.4740629
-0.831702
-0.8292666
-0.716974
-0.4741662
-1.84159
-2.291886
-1.851232
-2.285246
-0.4422352
-0.5591367
-0.5597608
-0.6155936
-0.4443361
-0.5603423
-0.5607817
-0.211403
-0.08557124
-0.2101013
-0.2074366
-0.2117282
-0.08643297
-0.2055805
-0.3865961
-0.4118398
-0.7166461
-0.1739175
-0.3874828
-0.4118243
-0.7170026
-1.523631
-2.963332
-1.124323
-0.8069251
-1.523802
-2.960698
-1.123948
-0.7110956
-0.7319936
-2.445421
-2.66731
-3.455737
-2.46514
-2.439991
-2.667975
-3.541825
-0.3687423
-0.165731
-0.363824
-3.29411
-2.445464
-2.649054
-2.648304
-3.277164
-2.441625
-2.637774
-3.595899
-1.320703
-1.268234
-1.319236
-1.267808
-0.8119449
-0.7199846
-0.4783989
-0.8305976
-0.8165335
-0.7220596
-0.4824519
-1.8781
-2.313251
-1.817252
-2.302385
-0.4451772
-0.5620401
-0.5580165
-0.6198567
-0.4467857
-0.5628969
-0.5584775
-0.2125778
-0.08745916
-0.2028302
-0.2117593
-0.2132158
-0.08820966
-0.2029773
-0.3862011
-0.4110388
-0.7155869
-0.1730589
-0.3872657
-0.4092844
-0.7141037
-1.524251
-2.959859
-1.12405
-0.8070248
-1.524812
-2.961923
-1.124797
-0.6770123
-0.6928126
-2.431071
-2.673973
-3.445694
-2.470377
-2.408557
-2.67198
-3.518153
-0.3739043
-0.1945305
-0.3549336
-3.288069
-2.443313
-2.633523
-2.664752
-3.282031
-2.446744
-2.621322
-3.558129
-1.324754
-1.266841
-1.324337
-1.270217
-0.8275179
-0.7198351
-0.4794128
-0.8389088
-0.8147245
-0.7254246
-0.4815676
-1.86943
-2.321115
-1.947252
-2.350401
-0.447781
-0.5626501
-0.5587722
-0.6196411