/*--------------------------------*- C++ -*----------------------------------*\
  =========                 |
  \\      /  F ield         | OpenFOAM: The Open Source CFD Toolbox
   \\    /   O peration     | Website:  https://openfoam.org
    \\  /    A nd           | Version:  7
     \\/     M anipulation  |
\*---------------------------------------------------------------------------*/
FoamFile
{
    version     2.0;
    format      ascii;
    class       volScalarField;
    location    "0.1";
    object      Uz;
}
// * * * * * * * * * * * * * * * * * * * * * * * * * * * * * * * * * * * * * //

dimensions      [0 1 -1 0 0 0 0];

internalField   nonuniform List<scalar> 
82743
(
-0.008593643
-0.01146093
-0.04828167
-0.03854725
-0.03616197
-0.03932072
-0.03727189
-0.0390989
-0.03664334
0.02023497
0.02158364
-0.004282976
-0.001188138
0.003688509
-3.509821e-05
-0.0005590186
-0.0006786183
-0.0002336388
0.01595339
0.02327808
-0.005504285
0.002257875
0.01276218
0.0035639
0.004751605
0.004574196
0.007176937
0.02042058
0.02116045
-0.005513979
0.005459044
0.01399548
0.009347826
0.01978871
0.01974699
0.02126708
0.006960629
0.01763058
-0.01434019
-0.009606684
-0.03594442
-0.02215879
0.002709026
0.01022741
0.02550932
0.01239219
0.0205331
-0.0219061
-0.0629142
-0.1522077
-0.0578786
0.0250361
0.01105946
0.01949926
0.006998712
0.02341406
-0.0203537
-0.04247396
0.007551047
-0.01983035
0.00833946
0.01863862
-0.01426055
-0.03033635
-0.008070213
-0.005300398
0.007855068
0.01556029
-0.007134123
-0.02177851
-0.005522594
-0.002796885
0.009363452
0.01462321
-0.005044001
-0.02369708
-0.0008730684
-0.009132143
0.01382918
0.01153755
-0.003316437
-0.02290635
-0.01355737
-0.0425833
0.01567102
0.006957692
-0.003785237
-0.02512128
-0.02013536
0.01393317
0.009192452
0.007146644
-0.01967219
-0.03785456
-0.01932962
-0.04028158
0.01748502
0.01790021
-0.0243438
-0.03640832
0.01631103
0.001754623
0.002653567
0.008005926
-0.1040863
0.02443555
0.02303854
-0.01380545
-0.0241194
-0.02006672
-0.006020734
-0.01720065
-0.03607854
-0.03104559
0.01617912
0.02396777
-0.002572013
-0.007829718
-0.006350449
-0.003195383
0.0006796828
0.0004809715
-0.008546407
0.01932166
0.02549217
-0.0003591591
-0.002042516
-0.001879148
0.00140818
0.004743957
0.003018225
0.003864715
0.01910033
0.02723905
0.001375016
-0.005895556
-0.005654519
-0.002794924
-0.0005397709
-0.0003917467
-0.000789595
-0.04570101
0.00190056
-0.009374639
-0.007250705
-0.006167336
-0.007244018
-0.007104349
-0.008044975
-0.008818091
-0.143583
0.005614644
-0.007518901
0.01948098
0.002351612
0.0120953
0.003699506
0.004075687
0.002581216
0.001660765
-0.06169357
0.01187644
-0.0167631
0.001739349
-0.0060246
0.00116476
-0.003194349
-0.002600732
-0.003873098
-0.00369766
-0.0845563
0.01661356
-0.003695971
0.008419651
0.0003620617
0.006667557
-0.004752
-0.0009117793
-0.003454593
-0.001327859
-0.07153842
0.01781357
-0.007186766
-0.002045608
-0.0005864567
-0.003070971
-0.01589642
-0.01266795
-0.01140304
-0.009001424
-0.07457293
0.01066814
-0.007243897
0.0004297282
0.01014452
0.001681872
-0.02735871
-0.0315502
-0.02233127
-0.004323912
-0.07049791
0.01138267
-0.004352017
0.02104259
0.006539999
0.07552691
-0.002381972
-0.04236656
-0.01484665
0.01186536
-0.07578046
0.01179641
0.004399709
0.03231449
0.0205953
0.06976581
0.007442928
-0.08101836
0.0202737
0.002178382
0.01881231
0.03683199
-0.01343945
-0.08179575
0.02143885
-0.003193971
0.03073178
0.02126393
-0.01117112
-0.08429575
0.02312237
0.002839273
0.02415531
0.0132749
-0.0142815
-0.08574641
0.02218697
0.001077158
0.03313138
0.004208322
-0.0354231
-0.08685428
0.02219798
-0.003142115
0.03489263
-0.005314542
-0.009244983
-0.08467436
0.02616175
-0.001205068
0.01960804
0.00319081
-0.07182081
-0.08236787
0.0328921
-0.004030203
0.02453977
0.006293574
-0.01737332
0.02206122
0.0307341
0.0408483
-0.0002841842
-0.08529307
0.02076044
-0.006373822
0.02368718
0.01443645
0.01332324
0.01912092
0.0278828
0.01293438
0.02067756
-0.0836451
0.02529867
-0.008619573
0.01537182
0.007197693
0.006472917
0.002703041
0.007135617
-0.005407181
-0.00335462
-0.08229726
0.02324058
-0.01079905
0.01636445
0.006382991
0.00666258
0.004612176
0.007109585
0.002789877
0.003895108
-0.08208574
0.02386776
-0.01111149
0.01491231
0.005990353
0.00718331
0.003931119
0.003932101
0.0001514428
0.0009384829
-0.03346289
-0.01052616
-0.02369801
-0.02583818
-0.02164994
-0.02240685
-0.01953772
-0.02006784
-0.01894047
-0.1592699
0.04091236
0.006752941
0.008074976
-0.0006535771
-0.0001747277
-0.003405449
-0.003700879
-0.004879844
-0.005499228
-0.122137
0.0520282
-0.01464033
0.008467655
-0.007744701
0.0001901814
-0.003921058
-0.002879989
-0.004085584
-0.003488641
-0.05729429
0.06084945
-0.003010704
0.01679033
0.007125164
0.008122449
0.0003006802
0.001430776
0.001027267
0.001637443
-0.06525277
0.06102952
0.0005036404
0.01674241
0.01295565
0.01526465
0.002638172
-0.0002638029
0.001728789
0.002557072
-0.07642957
0.05788473
0.008832594
0.01586245
0.01575321
0.01900678
0.003859942
-0.00337879
0.003572289
0.005359785
-0.07521647
0.06075502
-0.002056914
0.01063164
0.0205624
0.00615146
0.001697386
0.001809074
0.005964426
0.01068807
-0.08194951
0.0580566
-0.002824904
0.006967817
0.03602639
0.001392086
-0.005482622
-0.07760262
0.06325208
-0.003293142
0.002790389
0.02044943
-0.02670879
-0.07965428
0.06569402
-0.007385601
0.0192453
-0.004454441
0.002288219
-0.002739924
-0.07694212
0.06941302
-0.003230452
0.006994102
0.01443233
0.004998236
0.008459879
-0.07622338
0.0723485
0.0001474616
0.01549242
0.03810184
-0.003773391
0.0117092
-0.07589149
0.07311567
-0.0005772091
0.01940651
-0.00821244
0.008615453
-0.07311623
0.06861745
0.007357539
0.01756929
-0.003136348
-0.02318383
-0.06424658
0.06624869
0.003081759
0.01647957
0.007852139
-0.004362304
0.004385077
0.009644595
0.06416996
0.008262582
-0.07393168
0.06066865
0.0003145244
0.0174028
-0.0003018828
0.002527374
0.001681114
0.01250956
-0.007874177
0.01051906
-0.06883289
0.06048244
0.00160231
0.01870097
0.004052193
0.005547686
0.0007385285
0.004631413
-0.01070147
0.00519637
-0.07392192
0.06038995
0.005768612
0.02014604
0.001539561
0.006293627
0.002918824
0.004643652
0.000301573
0.000869449
-0.07377736
0.0595452
0.003454387
0.01603161
0.001030642
0.006222054
0.00343386
0.004023891
-0.0003055066
0.002045678
-0.001762043
0.007245376
0.02162856
0.02654585
0.02672689
0.02834426
0.02783117
0.0249976
0.0256096
-0.06090102
-0.01730253
-0.009519325
0.004182118
0.007370292
0.008818831
0.008939884
0.009687953
0.007792682
0.009552637
-0.03742485
-0.01084101
-0.01722078
0.002885671
3.406842e-05
0.005821337
0.002261742
0.003113845
0.002271031
0.003186252
-0.02257217
-0.003872415
-0.01542824
-0.001658393
0.0001510951
0.004744929
-0.002016374
-0.001651703
-0.001877967
0.000834627
-0.02732665
-0.003727594
-0.01398903
-0.002457715
0.00179244
0.009641826
-0.002934549
-0.005571019
-0.003236525
-0.001832508
-0.01885445
-0.003957088
-0.01104978
-0.001441395
0.003768485
0.02186341
-0.001029237
-0.01584129
-0.005356361
-0.002305557
-0.01819237
-0.004030712
-0.0100437
0.001022911
0.01140139
0.03366251
-0.004563677
-0.01317538
-0.001986979
-0.004688828
-0.01788332
-0.004621805
-0.00786957
0.00343958
0.01306985
-0.00960862
-0.001817771
-0.01587386
-0.0006821783
-0.007871643
0.004610322
0.0100183
-0.01081279
-0.01513255
-0.0002959351
-0.008361963
0.01095504
0.01068924
0.007819101
-0.005392296
-0.01442322
0.0003572423
-0.008213429
0.005637915
0.00731982
0.008653512
-0.0007466675
-0.01231331
-0.001174997
-0.008497437
0.007878732
0.0113504
0.008703342
0.003653856
-0.01184571
-0.004339987
-0.01324834
0.009128308
0.001554369
0.01530296
-0.009511612
-0.006992368
-0.01255914
0.006032733
-0.0002161536
-0.002681014
-0.01482978
-0.0007221486
-0.01304332
0.001382915
0.004736241
0.001646084
0.002957456
0.004977091
0.001950062
0.009396052
-0.01725338
-0.001418006
-0.01188595
0.002515561
0.003767169
0.004953208
0.004890152
0.00999097
0.001598763
0.008814111
-0.01626151
-0.00357446
-0.0121035
-0.0001869432
0.0004181699
0.00268752
0.001079947
0.003165691
-0.000380406
0.000836448
-0.02310109
0.0007207077
-0.01256043
0.001622174
0.0003042875
0.002930222
0.002276956
0.004077174
0.001459121
0.003288323
-0.01625707
-0.0007189653
-0.01229489
0.001428028
-0.002129773
0.001709839
0.001341922
0.002166918
0.0002973593
0.001091078
-0.00930363
-0.003510075
-0.002043037
-0.001791535
-0.001781833
-0.002420847
-0.001686529
-0.002096713
-0.001547206
0.0261816
0.005532155
-0.001851108
0.004165812
0.001567387
0.0009316668
-0.001606735
-0.0009948458
-0.002333966
-0.001555436
-0.01602158
0.008678482
-0.005358372
0.00482968
0.0001670059
-9.530137e-05
-0.001783395
-0.0009213586
-0.002288037
-0.001343883
-0.006973447
0.01173069
-0.008119365
0.007319018
0.002591917
-0.003147363
-0.001237838
-0.0006357876
-0.001473184
-0.0006234187
-0.007699519
0.01116109
-0.004160468
0.01014121
0.007318899
-0.004808479
0.0003595755
0.0009151662
-0.0007104335
-1.428199e-05
-0.007715856
0.01346308
-0.0004920442
0.009202697
0.007761671
-0.01952944
0.0002264539
0.001450819
0.0002151519
0.0001943696
-0.00777514
0.01119785
-0.002573596
0.008228894
0.00703704
-0.001847905
0.007085256
-0.0005814029
0.0008261315
-0.001903125
-0.008513177
0.013078
-0.004053831
0.00845825
0.008281027
0.02046996
4.052481e-05
-0.008132198
0.01624406
-0.004000663
0.006632757
0.003779823
-0.002063256
-0.00871887
0.01537565
-0.004938353
0.008079837
0.001168723
0.002652147
-0.0004644218
-0.008530373
0.01784641
-0.003574215
0.007634564
0.002115011
0.01140304
-0.001690509
-0.007609329
0.02046224
-0.0003761424
0.008263096
0.003534789
0.0102125
0.001541502
-0.0106554
0.02369016
0.001210862
0.005493124
0.001063673
0.007430266
-0.01044462
0.02899211
0.003218827
0.0001145772
-0.002152277
0.004202712
-0.01306314
0.02682916
0.0008617179
0.005148563
0.0009613095
-0.001157086
0.001477579
0.002451638
-0.002643653
0.008513041
-0.0156224
0.02315551
-0.001347729
0.008906648
0.002084185
0.002000199
0.0006827794
0.002516829
0.0003001093
0.003070986
-0.01683492
0.02425311
-0.00419231
0.007656738
0.0039696
0.004302155
0.001994604
0.002302989
-0.0002260305
0.001032544
-0.01009571
0.02341518
-0.002715251
0.006813012
0.00410009
0.004998505
0.00267505
0.002309658
0.0007223134
0.001050041
-0.01187681
0.01969798
-0.00663762
0.004567222
0.005706663
0.005954634
0.003952643
0.002800851
0.001048725
0.001138805
0.0001034724
0.003734048
0.003530366
0.003514266
0.002204598
0.00213178
0.001754374
0.001946182
0.001594129
-0.01465234
0.005852564
-0.0009041028
0.002477285
0.001627949
0.001139679
0.0008661682
0.00106627
0.0009864023
0.001171242
-0.002120239
-0.004304635
-0.003479414
-0.001352288
-0.0005433093
-0.001216734
-0.0009474865
-0.0005501663
-0.0003935044
-0.0001918765
-0.004812763
-0.006955026
-0.005314539
-0.002888578
-0.0004960788
-0.003648298
-0.002067082
-0.002040038
-0.001135603
-0.001166124
-0.007086494
-0.009358337
-0.005001922
-0.001335724
-0.0002917282
-0.006116388
-0.002880734
-0.002926529
-0.001492532
-0.001634732
-0.006961825
-0.01025752
-0.005423512
-0.001620412
0.0009346265
-0.00809004
-0.005457939
-0.00300092
-0.001236125
-0.001425377
-0.006166328
-0.007623899
-0.005045198
-6.985845e-05
0.001463019
0.03843776
-0.02705575
-0.002311637
-0.0006656608
-0.0001724024
-0.005583006
-0.008265376
-0.005019232
0.0002325752
0.004358433
0.01681841
0.001014932
-0.005297048
-0.008647043
-0.003732952
2.005466e-05
0.002885261
-0.000120342
-0.003988087
-0.009203082
-0.001808528
-0.002302255
0.001951268
-0.001271856
-0.002389835
-0.003731905
-0.01090627
-0.00269823
-0.002007016
-0.001269957
-0.001934927
-0.0006624296
0.00424252
-0.01367563
-0.003115016
-0.003820723
-0.002327941
-0.0007142331
-0.001564361
0.00764791
-0.01969879
-0.002993569
-0.002726852
0.0004985911
-0.001791588
0.008574961
-0.02605559
-0.003698717
0.00135418
0.001311869
-0.00236889
0.006945301
-0.02109259
-0.001352062
-0.003972557
-0.0009903813
0.02819771
0.0005931321
0.0007668882
-0.006273542
0.001055482
0.01418071
-0.0235095
0.0002078199
-0.00782501
-0.001302801
2.675121e-05
0.001580323
0.00230345
0.001522426
0.002577411
0.007388282
-0.0200377
0.00347427
-0.006518838
-0.003346586
-0.002936888
-0.001526977
-0.0005288512
-0.0005440158
0.0007651632
0.01463452
-0.02061701
0.00090265
-0.006813941
-0.003622381
-0.003397788
-0.001188235
0.0001352889
0.0004593413
0.00142116
0.01043343
-0.01832176
0.004541548
-0.004475047
-0.005491214
-0.004650485
-0.002831841
-0.001307227
-0.000652171
0.0002726066
0.01064351
-0.006326646
-0.005982201
-0.005753999
-0.002066105
-0.003461966
-0.002513102
-0.002635863
-0.001550142
-0.0224134
-0.005606131
-0.01152001
-0.01448866
-0.01640577
-0.01091082
-0.01483294
-0.01077687
-0.01440323
-0.01080142
0.02201488
3.60781e-05
0.008157806
0.00230499
0.0003946294
-3.314962e-06
-0.001380311
7.480057e-06
-0.001585949
-9.146479e-05
0.01330703
0.001056299
0.01093588
-0.00035483
-0.002232223
-0.003567216
-0.001967093
-0.001879963
-0.002190605
-0.003551139
0.01559863
0.005226409
0.008472428
0.0004570322
-0.001789084
0.0005968303
0.002345529
0.004030304
0.001274525
0.00100366
0.02176737
0.009322766
0.005066483
-0.002380461
-0.003291303
-0.002271436
0.002348605
0.007753588
0.003101992
0.0001802829
0.02036506
0.004728916
0.006278496
0.0009100054
8.119213e-05
-0.01351535
-0.0113712
0.0004301358
0.002443301
0.0003467474
0.01996633
0.005814267
0.006474408
-0.001165983
-0.002265203
0.009919439
0.001489083
0.0178747
0.0007923768
0.005250513
-0.001275183
-0.0007852124
0.009662983
0.01737822
-0.001247357
0.006361677
-0.008492893
-0.009344811
-0.008561692
0.002722701
0.01587093
-0.004933534
0.007680707
-0.002292375
-0.003534406
-0.01116855
0.003114528
0.0225526
-0.001681891
0.009113164
-0.004535694
-0.009127451
-0.008923185
-0.004183823
0.01074379
-8.791697e-05
0.01399155
-0.005492937
0.001905729
-0.01005907
0.008177235
0.005476042
0.01356743
-0.004564729
-8.70948e-05
-0.005621481
0.0139971
0.0006184199
0.01379012
-0.0008981179
-0.001160015
0.008977192
-1.508374e-05
-0.0003028596
-0.008701778
-0.004828027
0.01599876
8.158975e-05
0.01228023
-0.001507536
-0.002923496
-0.002728197
-0.002965525
-0.004360234
-0.003614062
-0.002459904
0.01181744
0.005937624
0.01390665
0.001620389
0.0002593397
-0.001596775
-0.000977315
-0.001761011
-0.001311242
0.0005202552
0.01962849
0.001013967
0.01271625
-0.0009243264
0.0004881238
-0.001398767
-0.0009651808
-0.001365445
-0.0006638721
-0.0001237293
0.003377057
0.008915972
0.01320431
0.0009048047
0.003247153
-0.0004134182
-0.0005173215
-0.0008457728
-0.0001988409
0.0002692317
0.01470557
-0.001359858
-0.01058016
-0.01540793
-0.01547971
-0.01728453
-0.01785818
-0.01438594
-0.01720075
-0.05826333
-0.0007827155
0.005335307
0.002236638
-4.705799e-05
0.0002055862
-0.001155256
-0.001409885
-0.000192853
-0.001521695
0.01840997
-0.01214889
0.006187755
-0.00522682
-0.003404871
-0.00442032
-0.003467336
-0.00260054
-0.002782232
-0.002246832
0.007690174
-0.020069
5.23554e-06
-0.007470363
-0.005166842
-0.007241082
-0.002617379
-0.003151545
-0.003334326
-0.0036441
0.01296479
-0.01721629
-0.001224431
-0.007626619
-0.009515503
-0.01277736
-0.004181293
-0.001418017
-0.004031232
-0.004715773
0.003125857
-0.01893443
-0.003142357
-0.005550714
-0.01282791
-0.01461799
-0.009578797
0.003112277
-0.005317081
-0.006098487
0.002951758
-0.01734334
-0.002572399
-0.00307561
-0.01599218
-0.01516466
-0.008491564
0.00853637
0.006001432
0.004916348
0.002826448
-0.01666994
-0.002305086
0.000766846
-0.01315461
0.009284028
0.007974332
0.001978346
-0.02137784
0.001132637
0.007788825
0.004554981
0.02452713
0.003559853
-0.02404194
0.005859557
-0.009137659
0.006926389
-0.004151783
0.0005165029
0.007916884
-0.02923932
0.0004322898
0.005988629
-0.009269884
-0.0107333
-0.008508375
0.04453929
-0.03867121
-0.001876923
-0.007702916
-0.03751428
0.001960869
-0.01412659
0.06971005
-0.05704639
-0.001399636
-0.01526588
0.007026429
-0.02253794
0.07305852
-0.06390245
-0.006890551
-0.01529926
-0.0009520241
-0.003962495
0.06346968
-0.06717317
-0.002971816
-0.01441543
-0.005485964
-0.002358242
-0.004087669
-0.006381539
-0.01279449
-0.007701705
0.07649656
-0.06032792
-0.0003344257
-0.01661501
0.001692573
0.000205194
0.002070854
0.0009507291
0.00389113
0.005755655
0.06659895
-0.06341563
-0.001320565
-0.01784823
-0.00357236
-0.004686454
-0.002504855
-0.00278951
-0.001399778
0.002122823
0.08293748
-0.06260795
-0.006749955
-0.01985336
-0.001092945
-0.004878574
-0.001647356
-0.001749435
0.0002349362
0.001041356
0.06706494
-0.06268887
-0.005058585
-0.01530433
-0.001760723
-0.00547369
-0.003655282
-0.00301765
-0.00131198
-9.739608e-05
-0.03190485
0.0006434498
0.01690611
0.01991123
0.01945412
0.02034193
0.01831659
0.02197108
0.02119855
0.04776255
-0.02936296
-0.0271307
-0.02274831
-0.02366961
-0.01585048
-0.01481577
-0.01303514
-0.01103294
-0.01059466
0.1197979
-0.02315083
0.00809327
0.005543942
0.007137663
0.006949168
0.005990383
0.007075755
0.007408485
0.007299856
0.06563374
-0.02803954
-0.001438953
-0.001959486
-0.001441532
-0.002206259
0.00692823
0.0009507931
0.0015945
0.0001166099
0.07328845
-0.02393155
0.003059478
0.006871547
-0.001523201
-0.0005191766
0.02208162
0.01748038
0.01104039
0.007782942
0.08775238
-0.01867496
-0.003189572
0.001071538
-0.01111108
-0.009582352
0.03133109
0.04782553
0.02329548
0.001893231
0.09040422
-0.020011
0.001414355
-0.02018062
-0.02702005
-0.04037116
0.0001891908
0.03358977
0.0232075
-0.000495478
0.09463215
-0.02110459
-0.007493647
-0.02738549
-0.04072362
-0.02712958
-0.009461183
0.09062584
-0.02708947
-0.006076415
-0.008681998
0.00711802
0.01963943
0.08631806
-0.03328799
0.000255395
-0.02366633
-0.007664077
0.006184592
0.08256399
-0.03421149
-0.002815488
-0.01416794
-0.002615441
0.02180567
0.07075772
-0.03338902
-0.002670815
-0.02497658
-0.06055515
0.04163564
-0.02007559
-0.02960783
0.005635844
-0.02630685
0.01020849
0.02014515
-0.003648041
-0.02975496
0.003129331
-0.0223727
-0.001531134
0.04954778
-0.002682523
-0.03303926
0.004537896
-0.02412299
-0.01109704
0.009270249
-0.005955313
-0.01106488
-0.02521566
-0.01497271
-0.008360477
-0.01963766
0.008287295
-0.02192675
-0.01231244
-0.009663363
-0.0130639
-0.01782242
-0.01192779
-0.00407622
-0.0007448476
-0.02863612
0.007388434
-0.01591377
-0.007263338
-0.00613173
-0.004389634
-0.006167433
-0.002793187
0.004946322
-0.008772505
-0.02379857
0.01142219
-0.01508389
-0.005459385
-0.005223527
-0.003131058
-0.004221585
-0.001363531
-0.0004311349
-0.001532897
-0.02775396
0.009710312
-0.01492142
-0.005859331
-0.006267671
-0.003530173
-0.002938267
-0.0008543024
0.0002820153
0.02928963
0.05165529
0.008813045
0.02415629
0.004735898
0.01256159
0.01014875
0.01537277
0.01435142
0.1830528
-0.04263084
0.02749156
0.02671148
0.04511629
0.03424214
0.03614232
0.0328884
0.03346729
0.0345852
0.04326135
-0.07404625
-0.01214307
-0.001615313
0.009989948
0.006184771
0.009285937
0.01164663
0.01294448
0.01361741
-0.004933845
-0.07757145
-0.02271201
-0.0151608
-0.01281298
-0.01854388
-0.01159836
-0.01274569
-0.01122907
-0.0116958
0.05390275
-0.06992485
-0.01340491
-0.01135955
-0.01505426
-0.0199388
-0.01079443
-0.01938011
-0.01982959
-0.01955513
-0.002277471
-0.06012043
-0.009546416
-0.01104754
-0.00566328
0.02229658
0.02838887
-0.01008806
-0.01122928
-0.0302242
-0.008314196
-0.07129365
-0.01325022
0.009605795
-0.01582829
-0.03978369
0.02489204
0.05272882
0.03630701
0.03467083
-0.006546955
-0.06894134
-0.009761412
0.008772316
-0.004559067
-0.04754607
-0.03353012
-0.002947789
-0.07139251
-0.01080754
0.006872593
-0.01521383
-0.02153891
-0.005613826
-0.07151597
-0.00958993
-0.001544126
-0.006851147
-0.005288313
0.006077345
-0.07371785
-0.008857272
-0.003404276
0.02768593
0.01887945
-0.002970474
-0.0578494
-0.008674954
-0.003636905
-0.03625045
0.07703961
0.04149973
-0.0287595
-0.003369127
0.005697816
-0.002628717
0.04369936
0.01753831
-0.02220806
-0.007459675
0.01502727
-0.009694688
0.1711444
0.01283257
-0.01782145
-0.01229056
0.02468235
-0.0009629698
-0.0169102
-0.0470829
-0.03575858
-0.09894636
0.04530774
0.0004905987
-0.02695098
-0.02218329
0.01430213
0.02405188
0.01852007
0.005458419
0.01677352
0.03644174
0.03177231
0.0007385729
-0.01393451
-0.02166676
0.002283531
0.006989597
0.005318695
0.002501801
-0.0009520163
0.0009919952
0.003950888
0.0012218
-0.02300285
-0.02436937
-0.001705334
0.001518591
0.001476948
-0.00151424
-0.003954775
-0.002236366
-0.001967047
0.000958827
-0.02286089
-0.02580082
-0.002650787
0.00501799
0.004297659
0.001881464
9.376914e-05
0.0003299777
0.0003401676
0.01827011
0.02948832
-0.2062695
-0.008401362
-0.0007887824
-0.03579103
-0.05650378
0.0265553
0.005035201
0.05293883
-0.01918254
-0.02497588
0.01152975
-0.001397394
0.03587204
0.02320024
-0.02846234
-0.06999059
-0.008264086
0.01574251
-0.004444325
0.01862132
-0.03307066
-0.03443562
0.007208539
0.02074013
0.01014894
0.01189103
-0.0305569
-0.05709875
0.01356482
0.02830757
0.01260676
0.02477883
-0.03828414
-0.03714757
0.01971823
0.02533149
0.01688522
0.01798316
-0.03594666
-0.0399806
0.02421849
0.02435411
0.02238852
0.02322584
-0.03675108
-0.0333732
0.02657911
0.02291321
0.02535384
0.02187459
-0.03419755
0.02664773
0.02814151
0.02320532
0.01280631
-0.03313906
-0.04436003
-0.0186778
-0.04543258
0.01001107
0.005438468
-0.02618135
-0.03985762
-0.008355741
-0.04195649
0.008279784
0.007465606
-0.003102252
-0.02827891
-0.001895314
-0.03770163
0.0100141
0.005352724
-0.002530091
-0.03223042
-0.001032354
-0.03963498
0.008512508
0.008376945
-0.002117006
-0.03063646
0.001741453
-0.0367518
0.01093988
0.001540898
-0.01251018
-0.03270761
0.004509474
-0.04201036
-0.08427969
0.02860482
0.05174261
-0.04532245
0.07859269
0.04476661
-0.0407791
-0.03171054
0.007443187
-0.03802023
-0.02470301
-0.03173053
0.01520961
0.001898546
0.003368639
-0.01508847
-0.03303771
0.004518931
-0.03628317
-0.0007684923
0.03948596
0.004784167
0.004789363
-0.01459566
-0.024306
0.005112666
-0.03110541
0.002385576
0.006651375
0.005801102
-0.01425122
-0.02524917
0.003882212
-0.03087643
0.002098846
0.005936915
0.007373357
-0.01303805
-0.02616386
0.003981684
-0.02906394
-0.01286687
0.006822904
0.009940103
-0.00659654
-0.02836566
0.003006795
-0.02999768
-0.02025121
0.008639969
0.01077805
0.000967239
-0.03166455
-0.0003851181
-0.03361944
-0.02435457
0.01014784
0.01079946
-0.0004759068
-0.03668962
-0.00253753
-0.03645587
-0.06799881
-0.02466268
-0.0939798
0.4028436
-0.1235247
0.009677303
0.01091493
-0.0009022112
-0.03923114
-0.003823973
-0.03776848
0.00977567
0.009981904
-0.0009701822
-0.04481333
-0.003787368
-0.03899392
0.01021102
0.01112582
-0.001014864
-0.04794847
-0.004115368
-0.039946
0.01000159
0.0109046
-0.0009485047
-0.05306242
-0.004310792
-0.04130652
0.009835909
0.01056852
-0.0009686959
-0.05535904
-0.04247987
0.000935681
-0.03052973
-0.02900306
0.001339048
-0.0270478
-0.05826622
0.06316898
0.07215049
0.02581395
-0.001814566
0.02030769
-0.01619654
0.02012844
-0.02047819
-0.004193044
0.01574666
0.01259305
-0.0190298
-0.005029688
0.2616743
0.02078013
0.1614767
-0.01339972
0.03517076
0.008064294
0.005827567
-0.001430828
-0.0231186
0.006904564
0.007301957
-0.01742459
-0.005399797
-0.06586867
0.003259227
0.0850198
-0.01941017
-0.03271538
-0.00268059
0.001702004
0.09495974
0.0002880383
0.00884169
0.01495102
-0.007364381
-0.008011041
0.005292027
-0.01612378
-0.006848023
-0.000652472
0.1483399
-0.004256435
0.106503
0.02304804
0.02374309
0.006251448
0.003774718
0.003337306
-0.02017127
0.00234587
0.002773194
-0.04797441
0.01646027
-0.08221072
0.01836532
0.009906347
0.01482387
-0.001200256
-0.01999595
-0.04634247
-0.039224
-0.005505069
-0.003197936
-0.008136706
0.02480505
-0.03278513
-0.002030586
0.002623136
0.03566546
-0.0005085563
0.005532978
-0.003959576
-0.0006106226
0.0009045465
0.01208567
0.0006998774
0.01005067
0.02782378
0.002465517
0.001666277
-0.008327159
-0.02245185
0.002583366
0.002629278
0.02555689
0.005638328
-0.003628289
0.01295455
0.007104301
0.009294937
0.005644112
-0.02130144
-0.003251677
-0.03766323
0.006027435
-0.03615677
0.01124228
-0.002932029
0.01358258
-0.01912039
-0.0656873
0.03172471
0.0001797479
0.0008007309
-0.001433356
-7.0933e-05
0.001443128
0.003182779
-0.0047121
0.003323624
0.02592682
0.002666026
0.002124451
-0.02813417
-0.02334486
0.0006278506
0.0007626724
0.009833218
0.001629313
0.001052529
0.01185854
0.0005213068
0.003690326
0.002750047
-0.01020834
0.003669585
-0.02581143
0.01813808
-0.06005755
0.0292518
-0.05915178
0.0006858137
0.01964615
0.05366657
0.01750107
-0.003309777
-0.003617248
-0.00325475
-0.005182768
-0.00487708
0.002637751
0.005097851
0.005080606
0.02532784
0.0005617819
0.0009729207
0.002651797
-0.02346376
-0.0008845058
-2.793655e-05
0.004097031
5.649924e-05
0.0002337588
0.009193671
-0.002032416
0.00206335
0.001559586
0.001468437
-0.001647174
0.002925261
0.0178392
0.05055635
0.03569642
0.001886858
-0.01134762
0.02541999
-0.01933278
0.02304292
-0.004216149
-0.005848874
-0.002742969
-0.001810275
-0.006186114
0.01431508
-0.006518086
-0.0009299562
0.02486619
-0.0008048867
-0.0005295502
-0.001193115
-0.02645708
-0.001432993
-0.000182779
0.002016555
-0.004702434
-0.004182968
0.005939023
-0.009879803
-0.001679849
-0.001517874
0.005388857
0.06241622
0.01298784
0.02039651
0.01558172
0.03882585
-0.02965408
-0.001678109
-0.0370675
0.009290727
-0.03058832
0.006231477
-0.008001202
-0.002381085
-0.008545349
-0.01486973
-0.03245062
-0.000791695
0.007919592
0.02204203
-0.001734209
-0.001896607
0.005851801
-0.02161784
-0.00470946
-0.002307368
-0.003940157
-0.009227903
-0.005208056
-0.0001920516
-0.01878382
-0.006521383
-0.00152308
-0.01577811
0.008278209
0.002742821
0.003413253
0.01034072
0.06375917
-0.02157431
-0.03407422
-0.08096788
-0.06087009
-0.06442962
0.005925125
-0.0163995
0.01868285
0.01549327
-0.01414325
-0.06694806
0.005154127
-0.01203697
0.02451587
-0.006699839
-0.006787318
-0.006738858
-0.03493756
-0.006115535
-0.004316459
-0.02061656
-0.0348651
-0.02481005
-0.05350402
-0.02383887
-0.01387537
0.006798313
-0.04330006
0.09179887
0.03076543
-0.02520362
-0.0151086
0.01643935
-0.03966208
-0.03970319
0.0109429
0.01557832
0.01677148
-0.0402304
-0.03993513
0.01556449
0.02115294
0.1589864
0.0205934
0.1016159
-0.02780326
-0.0169353
0.07546405
0.001519198
0.1173186
-0.03058567
-0.0210823
0.1093186
-0.0172976
0.1014382
-0.02537321
-0.01556647
-0.1032024
-0.08005095
0.1323063
0.1232131
-0.004901483
0.06867128
0.08759642
0.01999053
0.03789698
-0.02474667
-0.05177006
0.02252187
-0.009462788
-0.01136446
-0.01515211
0.003413873
0.1093102
-0.01650851
0.09960125
-0.02198129
-0.01274541
0.03611897
0.003952494
0.005049094
-0.02466759
-0.01417672
0.02029415
-0.03786001
0.03360916
0.04520952
0.002834418
0.03875448
-0.006656609
-0.006141101
-0.007318184
-0.005016073
-0.6527207
0.1067554
-0.02840359
0.1004103
0.0367528
0.003966602
0.03827227
-0.006744846
-0.01810728
0.008966299
-0.003529522
-0.00836192
-0.02569144
-0.009831738
0.0242706
0.02683836
-0.02021372
-0.05052176
-0.009060288
0.01478481
0.1463477
0.02967368
0.07185968
0.04682428
0.004281912
0.03973466
-0.01522375
-0.01337106
0.04828554
0.007584918
0.0432322
-0.005586037
0.005334469
-0.00454231
0.04967625
0.003995782
0.04355005
0.005461611
-0.01897297
-0.01493118
0.05388253
0.007070528
0.04201454
-0.005181749
-0.005656342
-0.003590721
0.00260865
-0.0003417622
0.01057164
0.02696247
0.003093604
-0.01164879
-0.01689297
0.0109911
-0.01546463
-0.01279249
-0.02380563
-0.0004353337
-0.01651684
-0.02268251
-0.02309305
-0.005810565
-0.01800821
-0.0168372
-0.02511016
0.002770043
-0.01628886
-0.02668791
-0.02632725
0.003582824
-0.02005012
-0.0258157
-0.02671162
0.009735746
-0.01896142
-0.02710785
-0.02716177
0.01753676
-0.02022459
-0.02653829
-0.02508302
0.02028733
-0.01814695
-0.0683498
0.0003502625
-0.03386845
-0.006970018
-0.05987713
-0.002061807
-0.02702146
-0.00809773
-0.05749598
-0.002875336
-0.02171787
-0.007116129
-0.05720969
-0.00395607
-0.02188343
-0.007303156
-0.05553685
-0.003747201
-0.02287478
-0.006537376
-0.05452548
-0.002973024
-0.0291282
-0.004033662
-0.08808767
-0.03098335
0.04330653
0.004395501
0.02798816
0.03327606
0.1381921
-0.0145557
-0.04159599
-0.03778634
-0.05215197
-0.00295009
-0.03428941
-0.004229462
-0.008578563
-0.03948021
-0.01023649
0.008163783
0.04331284
0.012398
0.01384323
0.007904386
0.06669668
-0.02740839
-0.03631189
-0.0314189
0.02053318
0.01754669
-0.04844106
-0.002647495
-0.03751678
0.000681879
-0.01015135
-0.02720647
-0.003661954
0.009409612
-0.01092633
-0.005828389
0.01023224
-0.003906642
-0.02848291
-0.01938771
-0.01646918
0.01360411
0.01741172
-0.01164324
-0.04800548
-0.002019247
-0.03556639
0.0003112442
-0.006893588
-0.02244925
-0.0005959041
0.005177192
0.003991131
0.002180292
-0.006738765
-0.01051896
-0.02108999
-0.02202473
0.005828935
0.0136318
-0.008674762
-0.002903402
-0.0474345
-0.001502985
-0.03556204
0.001338982
-0.00339163
-0.0212813
-0.002467578
0.01488116
-0.001541564
0.01067992
-0.003562119
-0.01418436
-0.01889543
-0.02317705
0.01344292
0.02493155
-0.004426553
-0.01624863
-0.04829113
-0.001061638
-0.03464187
0.002762628
-0.004051453
-0.02220689
-0.004535632
0.01495777
0.0187739
0.01483531
-0.006475322
-0.01545046
-0.02199058
-0.024153
0.02468337
0.01624317
-0.02729474
-0.03522116
-0.05057406
-0.0009723954
-0.03301164
0.001871321
-0.006173122
-0.02411395
-0.008065429
0.01046112
-0.01434461
0.01034434
0.01815834
-0.01863559
-0.0218766
-0.02382591
-0.0167586
-0.0274257
-0.01449509
0.1211803
-0.05400757
-7.55613e-05
-0.03577452
0.001800892
-0.008820777
-0.03712629
-0.03586009
0.004324505
0.003306786
0.007625977
0.005885306
-0.0172922
-0.03214984
-0.009608226
0.2930536
-0.01726285
0.6184068
-0.04520859
-0.0562848
0.0006143084
-0.04367593
0.002732969
0.0003284075
-0.02954908
-0.03127561
0.001561312
-0.01058834
0.004461922
0.007427877
0.009602313
-0.01724756
-0.01796672
0.04708282
-0.001489853
0.008979947
0.01345759
0.01252327
-0.02014513
-0.02799089
0.03102784
0.04055294
0.01987689
0.02322841
-0.08842791
-0.030765
-0.07379773
0.08248424
0.06410734
0.05633883
0.05452923
-0.05623472
-0.0002317243
-0.04541136
0.003584368
-0.05637871
-0.0008399975
-0.04788869
0.004808438
-0.05674024
-0.00128276
-0.04941609
0.005372227
-0.05741179
-0.00165519
-0.0510429
0.005711495
-0.03690947
-0.06357947
0.02692624
0.01804263
0.1124256
0.02855477