/*--------------------------------*- C++ -*----------------------------------*\
  =========                 |
  \\      /  F ield         | OpenFOAM: The Open Source CFD Toolbox
   \\    /   O peration     | Website:  https://openfoam.org
    \\  /    A nd           | Version:  7
     \\/     M anipulation  |
\*---------------------------------------------------------------------------*/
FoamFile
{
    version     2.0;
    format      ascii;
    class       volScalarField;
    location    "0.1";
    object      Uz;
}
// * * * * * * * * * * * * * * * * * * * * * * * * * * * * * * * * * * * * * //

dimensions      [0 1 -1 0 0 0 0];

internalField   nonuniform List<scalar> 
105056
(
0.005401321
-0.002718933
-0.002896794
-0.002458271
-0.002351567
0.003166167
-0.006657923
-0.006043217
-0.005095542
-0.005187833
0.003401623
-0.007234338
-0.005955517
-0.00521934
-0.00550498
0.004148973
-0.007007087
-0.007718471
-0.005003608
-0.006144687
0.003233555
-0.007143631
-0.007093392
-0.004453497
-0.006039091
0.002422825
-0.007764713
-0.006777763
-0.00413642
-0.005976093
0.003299529
-0.008466448
-0.006696874
-0.004110931
-0.005589392
0.003549372
-0.008891769
-0.006564816
-0.004757412
-0.00505176
0.003923546
-0.007335757
-0.006522712
-0.0053917
-0.00477482
0.004100678
-0.007361751
-0.006373637
-0.005351267
-0.004770741
0.003768737
-0.007306412
-0.006394942
-0.00517373
-0.00483685
0.003918966
-0.007218541
-0.006370157
-0.005036753
-0.004782306
0.003490663
-0.007291381
-0.006394255
-0.00499263
-0.004548377
0.003341737
-0.007315848
-0.006257129
-0.005195487
-0.004416935
0.004362698
-0.007181154
-0.006118912
-0.005361725
-0.004285079
0.003520482
-0.007424251
-0.006007834
-0.005255717
-0.004223904
0.003317737
-0.009306063
-0.008489364
-0.004480777
-0.004273773
0.002641526
-0.010051
-0.007557042
-0.003774754
-0.004281899
0.002908016
-0.01228624
-0.007274069
-0.00379052
-0.004194318
0.004701558
-0.01078572
-0.005991416
-0.003773763
-0.003987862
0.002610599
-0.0128154
-0.006270218
-0.003738205
-0.003811521
0.00332734
-0.01243353
-0.006501608
-0.003755537
-0.003643129
0.01323342
-0.01184207
-0.006679816
-0.003700828
-0.003655141
0.01661294
0.009978565
0.01224171
0.01128028
0.01018396
-0.03297402
-0.01929709
0.03278692
-0.007523906
0.007521784
0.0001206488
-0.1034619
-0.03417422
0.03832946
-0.0153748
0.005048909
-0.004829125
-0.1064376
-0.04437051
0.03870234
-0.01751208
0.004658532
-0.0008595334
-0.1349688
-0.05254339
0.03836388
-0.01665388
0.005170819
-0.004330027
-0.150254
-0.05068921
0.03630038
-0.01635265
0.007941582
-0.002487518
-0.1604345
-0.04625027
0.0288561
-0.01542322
0.008358943
-0.003055365
-0.1679057
-0.04366983
0.02449522
-0.01532648
0.008463892
-0.003003644
-0.1727881
-0.04225061
0.02183285
-0.01551207
0.007591877
-0.003082637
-0.1748572
-0.04230171
0.02303026
-0.01598013
0.006949589
-0.00311744
-0.1735475
-0.04206856
0.02318561
-0.0163811
0.007033009
-0.003127537
-0.1742192
-0.04260389
0.02277385
-0.01668593
0.007227358
-0.003076744
-0.1726484
-0.04318561
0.02267243
-0.01681397
0.007778698
-0.003026256
-0.1668198
-0.0443579
0.02227471
-0.01678547
0.008243364
-0.002807327
-0.1480962
-0.04654776
0.02315052
-0.01688384
0.008948813
-0.002726416
-0.1310257
-0.04355358
0.02044928
-0.01705625
0.008766369
-0.002499821
-0.1452145
-0.04831062
0.02108285
-0.01710131
0.008885668
-0.002423651
-0.1162021
-0.04562639
0.02170005
-0.01725827
0.009518709
-0.002235417
-0.1127804
-0.04604259
0.02128128
-0.01747649
0.009522559
-0.002357257
-0.1181415
-0.04519473
0.02148227
-0.01762529
0.009261476
-0.00227087
-0.109545
-0.04651953
0.02570741
-0.01759087
0.009835095
-0.002411194
-0.117509
-0.04622764
0.02431365
-0.0172879
0.008639621
-0.00233159
-0.1198
-0.04660568
0.02585003
-0.01768717
0.008981701
-0.002656715
-0.1667044
-0.049697
0.02406464
-0.01779334
0.008194426
-0.002717148
0.008712428
0.0004540187
-0.001799612
0.0005797158
0.0008192428
-0.01040682
-0.02229583
0.01413867
-0.005785848
0.002384819
0.0001180902
-0.005487617
-0.01923479
0.01012703
-0.009460119
-0.001316328
-0.001658078
-0.02953706
-0.019416
0.00384062
-0.01501297
-0.004089726
-0.003606219
-0.02366865
-0.03004137
-0.001344106
-0.01873004
-0.003656531
-0.002453217
-0.05094173
-0.02928212
-0.004619461
-0.02069903
-0.005227554
-0.003924039
-0.07211919
-0.02410304
-0.007084626
-0.02232634
-0.006313658
-0.003823798
-0.08902943
-0.02004762
-0.00656274
-0.02308248
-0.006950311
-0.004516504
-0.09687314
-0.01645301
-0.006284851
-0.02378395
-0.007400005
-0.004767789
-0.1011447
-0.0142178
-0.00546606
-0.02404194
-0.007677529
-0.005290369
-0.1041179
-0.01254467
-0.00501683
-0.02437599
-0.007998998
-0.005565175
-0.1025843
-0.01129705
-0.00510962
-0.02461722
-0.008218794
-0.005897662
-0.09999232
-0.01049714
-0.005391509
-0.02471284
-0.008301967
-0.005968083
-0.0987839
-0.01028537
-0.005768036
-0.02514503
-0.00826428
-0.006346809
-0.1070109
-0.009490571
-0.005797045
-0.02558068
-0.007998747
-0.006119805
-0.1125574
-0.008641362
-0.007103003
-0.02631123
-0.007986877
-0.006252758
-0.0940081
-0.009140589
-0.007240867
-0.02668983
-0.007875296
-0.00619112
-0.1090854
-0.009042197
-0.007484438
-0.02681155
-0.00784055
-0.006296651
-0.1090355
-0.008898646
-0.007544458
-0.02640935
-0.00765
-0.006078332
-0.1056398
-0.008801224
-0.007082358
-0.02619855
-0.007507799
-0.00622806
-0.1157478
-0.009438378
-0.005468233
-0.02531562
-0.007188314
-0.005890467
-0.1203368
-0.009399471
-0.005142845
-0.02498423
-0.007456688
-0.006117972
-0.1086873
-0.009899908
-0.004142527
-0.02424962
-0.007824621
-0.005977717
-0.06191842
-0.009762497
-0.003385818
-0.02365771
-0.00729284
-0.005909418
-0.004821626
0.00663934
-0.002893128
0.0005838551
-0.0002635003
0.003485901
-0.01210729
0.008225656
-0.004049662
0.0009926046
0.0006392555
0.00332675
-0.02397622
0.01452084
-0.003784062
0.003779189
-0.0006902923
-0.004136704
-0.01908166
0.006355839
-0.009333188
0.0006140986
0.0001348449
-0.01860145
-0.01054537
-0.001635011
-0.01288571
-0.005047263
-0.004009766
-0.03413207
-0.01217114
-0.005312177
-0.01457129
-0.005414498
-0.002909894
-0.06162719
-0.00838633
-0.005582235
-0.01270737
-0.00648272
-0.002977689
-0.07260898
-0.007955734
-0.00647607
-0.01151746
-0.007572677
-0.003245744
-0.07649626
-0.00577501
-0.007924
-0.01193875
-0.008683495
-0.003632806
-0.07641113
-0.00586082
-0.008630148
-0.01184932
-0.009114621
-0.003925193
-0.07326477
-0.005655011
-0.009976868
-0.01213105
-0.009516875
-0.004153104
-0.06808754
-0.005628836
-0.01141052
-0.01260235
-0.009637976
-0.004295228
-0.06358439
-0.005829588
-0.01301758
-0.01286154
-0.009574076
-0.004405167
-0.06074555
-0.005619051
-0.01474543
-0.01300688
-0.009689241
-0.003949877
-0.0624818
-0.005530067
-0.01568574
-0.01355627
-0.009416121
-0.004127401
-0.06354736
-0.004578923
-0.01691204
-0.01417041
-0.009679855
-0.003849068
-0.06174897
-0.004642985
-0.01767022
-0.01453104
-0.009456963
-0.004194075
-0.06652296
-0.003748248
-0.01812482
-0.01462856
-0.009388237
-0.003883132
-0.06964923
-0.003678463
-0.01823506
-0.01483356
-0.00914867
-0.004070458
-0.07189886
-0.004307997
-0.01808099
-0.01491333
-0.008963926
-0.003865941
-0.07722047
-0.004909504
-0.01739684
-0.01503147
-0.008676663
-0.003994196
-0.07854335
-0.005163836
-0.01687677
-0.01381998
-0.008485373
-0.003719787
-0.07771522
-0.005754006
-0.01572048
-0.01314425
-0.007873591
-0.00427596
-0.06447189
-0.006913475
-0.01528495
-0.01239004
-0.006912645
-0.004151157
-0.009389425
0.002624426
0.0005531799
-0.0007861663
-0.000273787
0.001434388
-0.003079121
0.001381569
-0.001734854
-0.0004969924
0.0001145015
-0.0006587412
-0.007164328
0.0009038281
-0.001134021
-0.001499682
-0.0005732497
-0.05418906
-0.007576317
-0.0007690125
-0.001893498
-0.0009392686
0.0008663964
-0.05362051
0.007953151
-0.005436386
-0.003656744
-0.004485424
-0.001259378
-0.05952836
0.01061409
-0.002393922
-0.002009083
-0.002545059
-0.001596192
-0.03951275
0.009921553
-0.001609488
-0.001036001
-0.001531258
-0.0003216736
-0.03856838
0.01123787
-0.002118653
-0.001184539
-0.001360127
0.0001183132
-0.04065849
0.009593304
-0.001853378
-0.001058944
-0.001587574
0.0005097806
-0.03514346
0.01256781
-0.001998849
-0.001416402
-0.001665308
0.0004102118
-0.02197089
0.01287396
-0.001840472
-0.001599377
-0.001876995
0.0005223002
-0.008003175
0.01296179
-0.001798699
-0.001690813
-0.002229527
0.000594166
0.00309077
0.01373729
-0.001749912
-0.001691753
-0.00258211
0.0008334171
0.01046398
0.01412383
-0.001790378
-0.001851142
-0.00220091
0.0009343396
0.01507035
0.01479772
-0.001800282
-0.001580274
-0.002457388
0.001301196
0.01839888
0.01554669
-0.001904865
-0.001294572
-0.001992263
0.001499255
0.01938308
0.0154369
-0.001967087
-0.0008804508
-0.002060204
0.001715804
0.01673554
0.01574098
-0.001977724
-0.0006361742
-0.001612037
0.00199266
0.01464973
0.01523681
-0.001946321
-0.0002621524
-0.001975908
0.002227906
0.01373781
0.01526474
-0.002061011
-0.0006715301
-0.001707129
0.002151516
0.01170426
0.01420424
-0.001858438
-0.0001446307
-0.002576236
0.002647706
0.00528702
0.01387163
-0.00203709
-0.001012693
-0.001278478
0.002808949
-0.01340391
0.01021887
-0.002010649
0.0005014747
-0.001506133
0.002473447
-0.1078075
0.01351451
-0.001000617
0.0009020167
-0.0004540511
0.003341741
-0.004173961
-0.0007983796
0.004284023
0.0002357409
0.0009335494
0.00122954
0.003172724
-0.001669068
0.00145955
0.0003792905
6.1387e-05
0.0007410179
0.007158257
-0.0008082839
0.001165843
0.001492978
0.0005487686
0.0003772222
0.007393206
0.001348534
0.001977432
0.0009671211
-0.0008674904
-0.002752174
-0.006622002
0.006480399
0.003809208
0.004391885
0.001336459
0.0003304439
-0.005746967
0.002996092
0.001996014
0.002309242
0.001947788
0.0001632137
-0.0001141015
0.001621158
0.0009643994
0.001527167
0.0002060604
0.000224454
-0.0004684044
0.001650286
0.0004485543
0.001301097
-5.019389e-05
0.0001368456
-0.002156969
0.001597571
0.0007114709
0.001607704
-0.0005155365
0.0001097538
-0.001974154
0.001187269
0.0007983552
0.001527171
-0.0007796861
0.0001510647
-0.001322695
0.001167139
0.0009143133
0.001592071
-0.0009775566
0.0002821889
-0.0005648421
0.001156161
0.0009467028
0.001530097
-0.0009483198
0.0004643984
-5.63231e-05
0.001074949
0.0009161188
0.001327034
-0.0009688632
0.0006722454
4.125225e-05
0.001254562
0.001040785
0.0008052715
-0.001273767
0.0008226859
-5.484683e-05
0.001315101
0.0009186506
0.000909837
-0.001382553
0.0009255139
-0.0003502376
0.001670031
0.0007692348
0.0007299905
-0.001353195
0.000971844
-0.0005481635
0.001881903
0.0006651512
0.0008028853
-0.001333984
0.0009579546
-0.0004778978
0.001890521
0.0003609271
0.0004732759
-0.001453321
0.0008800169
-0.0005821908
0.001854904
6.944808e-05
0.0007047873
-0.001486089
0.0007786427
-0.0003585669
0.001754401
8.643684e-07
0.0002623456
-0.001619347
0.0006800526
-0.0009135963
0.002382684
-5.722727e-05
0.0008502166
-0.001509445
0.00052522
0.0005643904
0.00112161
-4.503521e-05
4.307361e-05
-0.002392181
0.0001577807
-0.00256045
0.002224976
-0.0001458238
0.000408691
-0.001214671
0.02491744
-0.001094266
0.0004596988
-0.0004860632
0.0004873456
-0.002553214
-0.0007142992
0.0001817051
-0.001978426
0.000279196
0.001242445
-0.00379918
0.01006321
-0.00695975
0.00439454
-0.0004178411
-0.000672024
-0.03422082
0.02278575
-0.01392098
0.003819458
-0.003344517
0.0008830269
-0.04368509
0.01844074
-0.006848205
0.009133949
-0.0005906521
-0.0001710173
-0.01651569
0.007493217
0.001049161
0.01210218
0.005027832
0.003986694
0.002269666
0.00499346
0.005567609
0.01375557
0.00537123
0.002755893
0.01452914
0.003172514
0.005632794
0.01205912
0.006476668
0.002963566
0.01420782
0.003385982
0.007186143
0.01181859
0.007516998
0.003103215
0.01419335
0.001225916
0.007757087
0.01185931
0.008483973
0.003536284
0.01416852
0.0005811893
0.00889666
0.01212484
0.009144985
0.003778582
0.01403035
-0.0007255659
0.01031506
0.01228785
0.009589403
0.004124671
0.01379436
-0.002010646
0.01120381
0.01256344
0.009863473
0.00436193
0.01353348
-0.002524418
0.01186954
0.01264604
0.0097931
0.004570881
0.01318451
-0.004194822
0.01363241
0.01276826
0.009717457
0.004178347
0.01277543
-0.003495988
0.01409175
0.01322724
0.009407293
0.004399856
0.01243874
-0.004112462
0.01484549
0.01352442
0.009392819
0.004043184
0.01217662
-0.003215246
0.01525105
0.0137898
0.009221589
0.004106621
0.01196908
-0.003507988
0.01561762
0.01370888
0.009226415
0.00373071
0.01176281
-0.002875837
0.01584145
0.01408921
0.009189798
0.003662692
0.01190151
-0.002780816
0.0158143
0.01415361
0.00893371
0.003426379
0.0117772
-0.002092703
0.01568423
0.01478324
0.008533177
0.003476555
0.01153872
-0.001788557
0.01524609
0.01444405
0.007928659
0.00270997
0.01128648
-0.002306875
0.01592318
0.01377945
0.007425054
0.003579457
0.01019507
0.000337703
0.01451885
0.01190835
0.003720604
0.002257215
0.003885577
-0.001021106
0.00219554
0.0007540874
0.000171158
-0.000156902
0.02523184
-0.014683
0.005533436
-0.002637395
-0.0003365819
-0.005149999
0.01989731
-0.01087201
0.009443626
0.0009299263
0.001521329
0.08834732
0.01930808
-0.004001639
0.01492775
0.003974949
0.003557067
0.08278003
0.03177804
0.0008636178
0.0186976
0.003770419
0.002456885
0.03642248
0.03101649
0.004127486
0.02073162
0.00541618
0.004009933
0.03516259
0.02526882
0.006838375
0.02241305
0.006251097
0.00384355
0.03353371
0.02027366
0.006257801
0.02310835
0.006907193
0.004638307
0.03269088
0.01633163
0.005887094
0.02382973
0.007373951
0.004954603
0.03210972
0.01403232
0.005559805
0.0242571
0.007802598
0.005538308
0.03174829
0.01275746
0.004987794
0.02468692
0.00819066
0.005766653
0.03157888
0.01170858
0.00469068
0.02515402
0.008381615
0.006112075
0.03150816
0.01156586
0.004533506
0.02536364
0.008429176
0.006255773
0.03179693
0.009919205
0.005573157
0.02604139
0.00851188
0.006567757
0.0323008
0.01089626
0.005978204
0.0265766
0.008362641
0.006422649
0.03314165
0.009163232
0.006581677
0.02715274
0.008289482
0.006450313
0.03393598
0.01055665
0.006919547
0.02752522
0.008312673
0.006510132
0.03500216
0.009481227
0.007148263
0.02759547
0.008232234
0.006370463
0.03490418
0.01043076
0.006967529
0.0277888
0.008240943
0.006395605
0.03440552
0.01046247
0.006205765
0.02681314
0.008056051
0.006244286
0.03387447
0.01014275
0.006973179
0.02622767
0.008244342
0.006248997
0.03304643
0.01020632
0.004459224
0.02551327
0.008548285
0.007113995
0.03204104
0.01171747
0.003809686
0.02450034
0.008682487
0.006515068
0.03187167
0.01055042
0.004421159
0.02327306
0.00910913
0.008302316
0.002417374
-0.003187561
-0.0001044804
-0.001304215
-0.002814704
0.01693432
0.01969147
-0.03306473
0.007509134
-0.007382514
-1.088527e-05
0.09629604
0.03405102
-0.03830349
0.0153
-0.005036478
0.004805798
0.09200175
0.04375001
-0.03875548
0.01734278
-0.004381957
0.0009082531
0.06958948
0.05122333
-0.03756593
0.01646438
-0.00510946
0.004241804
0.07044381
0.0499903
-0.03564547
0.0162589
-0.007730815
0.002290044
0.07115051
0.04521872
-0.02824922
0.01543937
-0.008234788
0.002940683
0.07161594
0.04293554
-0.02387331
0.01552051
-0.008129521
0.002903999
0.07178665
0.04177761
-0.02181989
0.01557591
-0.007134497
0.002984036
0.07187957
0.04152278
-0.02081258
0.0157776
-0.006596344
0.003011169
0.07204547
0.04127981
-0.02196698
0.01621193
-0.007110589
0.00295984
0.0721969
0.04132498
-0.02166368
0.01663047
-0.007534963
0.002834212
0.07248538
0.0438535
-0.02211491
0.01662175
-0.008120615
0.00264538
0.07209049
0.04116928
-0.01868429
0.01670663
-0.008506425
0.002444441
0.07261516
0.04475585
-0.01906447
0.01678915
-0.008788749
0.002216064
0.07170406
0.04206122
-0.0187495
0.01706091
-0.00928985
0.002019479
0.07136279
0.04632251
-0.01926163
0.01714834
-0.009493676
0.001830347
0.07127075
0.04384239
-0.01945355
0.0170534
-0.009945318
0.001704304
0.07209491
0.04462399
-0.02062832
0.01758929
-0.009835135
0.001656731
0.07141192
0.04326007
-0.02169574
0.0169511
-0.009787923
0.001767331
0.07999776
0.04111948
-0.01961345
0.01758581
-0.008793641
0.001995312
0.07233135
0.04541371
-0.02372342
0.01773839
-0.00998011
0.001542456
0.07185684
0.04336241
-0.02354331
0.01802464
-0.008982139
0.002448675
0.07203671
0.04294431
-0.01943099
0.01797755
-0.009325274
0.001502699
-0.02501676
-0.02125325
-0.007071396
-0.01306606
-0.01001717
0.003874198
-0.03447759
-0.03520351
-0.01338724
-0.02213167
-0.01694631
0.002380336
-0.0238504
-0.02534799
0.0005349257
-0.01844859
-0.01480729
0.000735544
-0.01328926
-0.02746874
0.001613232
-0.02110683
-0.0150711
0.0006918352
-0.007773054
-0.02872987
0.001968768
-0.02039736
-0.01513127
0.000733258
-0.009706387
-0.03325097
0.001623823
-0.02069026
-0.01507728
0.000747666
-0.01006808
-0.03977476
0.002141382
-0.02093511
-0.01433793
0.0007481449
-0.01016581
-0.04092531
0.001247816
-0.02144126
-0.01379526
0.0007367288
-0.01116142
-0.04133922
0.001316435
-0.02247079
-0.01368762
0.0007444948
-0.01039447
-0.04207493
0.001575353
-0.02303694
-0.01431556
0.0007492334
-0.01167109
-0.03974887
0.001427133
-0.02264069
-0.01440754
0.0007538013
-0.01309064
-0.03717633
0.001547766
-0.02221836
-0.01437329
0.0007397423
-0.01300621
-0.036307
0.001606759
-0.02208617
-0.01432547
0.0007372069
-0.01159022
-0.03684518
0.001566214
-0.0222101
-0.01423118
0.000742985
-0.01198983
-0.0373787
0.001855841
-0.02253462
-0.01394041
0.0007004245
-0.01186498
-0.03639402
0.001656958
-0.02232302
-0.01366013
0.0007176294
-0.01192642
-0.03545832
0.002082642
-0.02221128
-0.01337793
0.0006784393
-0.01325603
-0.03456524
0.001444523
-0.02181582
-0.01325282
0.0006694502
-0.009556555
-0.03534888
-3.85026e-05
-0.02222834
-0.01282186
0.0005914218
-0.00157596
-0.03760269
-0.00642002
-0.02115604
-0.01063234
0.01810665
0.001706146
-0.03440801
-0.0007486582
-0.02184693
-0.01033504
0.0006258259
-0.01587961
-0.0315697
-0.0004216565
-0.02111238
-0.01233724
0.04275173
-0.01473494
-0.03229445
0.0003935309
-0.02115736
-0.01340375
0.03919321
-0.01060928
-0.03556748
-0.003594837
-0.02083531
-0.008480257
0.0162055
-0.01711343
0.003102256
-0.005039548
0.04053594
0.03863812
-0.00398597
0.02607322
-0.02290522
0.003381375
0.01428688
0.01938713
-0.002288785
0.02647634
-0.03391036
0.0277976
0.02726121
0.01712112
-0.0007384889
0.02860495
-0.03342027
0.02810481
0.02293098
0.01632415
-0.0006907324
0.02310208
-0.03302251
0.02546918
0.02352502
0.01472623
-0.00073622
0.01946959
-0.03490161
0.02060035
0.02057042
0.01338564
-0.0007473239
0.01850622
-0.03591683
0.01875374
0.0195519
0.01282023
-0.0007494688
0.01843978
-0.03635289
0.017977
0.01862685
0.01296075
-0.0007369392
0.01831978
-0.03638534
0.01789417
0.01835523
0.01337912
-0.0007456883
0.01898103
-0.03583675
0.01772492
0.01819588
0.0132369
-0.0007390121
0.02003661
-0.03628303
0.01776249
0.01729381
0.01323809
-0.0007438966
0.01996506
-0.03632831
0.01851133
0.01782066
0.01328037
-0.000723916
0.02033151
-0.03673401
0.01932884
0.0169769
0.01382275
-0.0007363205
0.02074175
-0.03637283
0.01946222
0.01708806
0.01600353
-0.000724812
0.02105536
-0.03861635
0.01831572
0.01103987
0.01203917
-0.0006997234
0.02240633
-0.03869296
0.01833656
0.01700686
0.01429946
-0.0007150707
0.02101656
-0.03799451
0.01921926
0.01185495
0.0189712
-0.0006777797
0.02477768
-0.03808054
0.02094038
0.01030378
0.01972811
-0.0006643318
0.02520463
-0.03975653
0.02020885
0.01080528
0.01179543
-0.0005898021
0.02466827
-0.04170599
0.01983108
0.01671699
0.01503331
-0.000572929
0.02657492
-0.001188243
0.0265192
0.0209319
0.010032
-0.03419698
0.02043536
-0.0006013857
0.0184106
0.02170511
0.01831378
-0.03385305
0.02171365
-0.0005459014
0.01815681
0.01522924
0.04488528
-0.03344368
0.02603779
-0.0006345136
0.01856275
-0.00975938
0.0108991
0.00343919
-0.02520549
-0.0849393
-0.001986007
0.00823278
-0.004497103
0.006180631
-0.0241632
-0.006121768
0.006139897
0.006291834
-0.0007969188
-0.002252715
-0.0315022
0.001016605
0.005954735
-0.004100848
0.05179577
-0.002706135
-0.02361749
-0.0003287502
0.005778949
0.004281336
0.05735607
-0.004639099
-0.01240716
0.0003546288
0.009053895
0.01861355
-0.003844701
-0.005701576
-0.004834305
-0.000246953
-0.0006299546
0.01931312
0.03565635
-0.008288504
-0.009657167
0.004329634
-0.006405395
0.01776267
0.08747059
0.0007136675
0.004141726
-0.0123965
-0.002563517
0.01760383
-0.003211488
0.004155835
-0.01601285
0.04083107
0.002927744
0.02878964
-0.0276153
0.007034391
0.02105038
-0.01527783
0.003295658
-0.002684113
-0.0002851534
0.03371701
-0.009373861
0.01334795
-0.001495413
0.003187511
0.02575628
-0.01174306
0.006669244
-0.001666068
0.001137799
-0.009509583
-0.001050505
-0.02620008
0.02291389
-0.003338515
-0.04104612
-0.03854729
-0.02644317
0.03375118
-0.02775491
-0.01446472
-0.01989653
-0.02871664
0.03338565
-0.02767926
-0.0260504
-0.01693774
-0.02260802
0.03292162
-0.02522427
-0.02422273
-0.01620246
-0.01923682
0.03460011
-0.01998246
-0.02348931
-0.01446571
-0.01852579
0.0356471
-0.01840467
-0.02089972
-0.01345012
-0.01822437
0.03622994
-0.01767208
-0.01969338
-0.01291289
-0.01812586
0.03642455
-0.01792029
-0.01901978
-0.0134574
-0.0199121
0.03571836
-0.01872302
-0.01066848
-0.01380283
-0.02090396
0.03705255
-0.01827529
-0.01262406
-0.01198197
-0.02123079
0.03596604
-0.0183853
-0.0150422
-0.01551719
-0.02061157
0.03540154
-0.01948908
-0.01255878
-0.01298273
-0.02058968
0.03584223
-0.02052652
-0.01698179
-0.01276166
-0.02556416
0.0005747201
-0.02061354
-0.01127889
-0.01797358
-0.02186751
0.002169984
-0.01877652
-0.01651574
-0.01741023
-0.02208108
0.001000003
-0.02076274
-0.01127755
0.009321262
0.04051138
0.02772784
0.02748276
-0.007180532
0.02093882
-0.04112181
-0.003392104
-0.02939671
0.002651097
0.0002072531
0.02145107
-0.02298312
0.01564863
-0.003922334
0.001417617
-0.003339493
0.004267937
-0.03373608
0.009005342
-0.01434494
0.001633727
-0.001121503
0.0131274
-0.02586632
0.01199684
-0.006739857
0.001047114
0.00993386
0.009518283
0.0009928767
0.004455955
0.02285272
-0.0008712189
-0.007673092
7.724528e-05
0.006432
0.0004329416
-0.008218404
0.004500729
0.02857644
-0.0007697786
-0.01010016
0.00428304
0.02931696
-0.0001464262
-0.01104617
0.00489901
0.03054441
0.0004691714
-0.01137738
0.004616923
0.03016458
0.001058499
-0.01203681
0.004154096
0.02963042
0.001362306
-0.01233595
0.003644734
0.02834201
3.474681e-05
-0.01249589
0.003272091
0.02830934
0.001950871
-0.01228156
0.0008223136
0.02997507
0.0005608973
-0.01260674
0.002599747
0.0283922
0.002715072
-0.01227424
-0.002968599
0.02847766
0.001526041
-0.01114867
0.002558508
0.02865684
0.002916148
-0.009391517
-0.001857737
0.03162513
0.002369422
-0.009657945
-0.005698745
0.0303055
0.00433127
-0.009401852
0.0004808169
0.03156159
0.00064282
-0.005998478
-0.00269741
0.03153533
0.004861095
-0.005157628
0.001702835
0.03605254
0.002302358
-0.007065727
-0.00292487
0.03348655
0.004706218
0.0009468484
0.0005652225
0.03022409
0.002231803
0.007002835
-0.01013723
0.005089038
0.004160779
0.00710242
-0.007042302
0.006650563
0.004322544
0.006887717
-0.01218375
0.003213867
0.004333946
0.008376244
-0.001143516
0.01691326
0.00212766
-0.01103594
0.007175025
-0.007687107
-0.008795068
-0.006708472
-0.006104633
-0.004215845
-0.000652301
-0.009122733
-0.01527066
-0.0006681082
-0.02072493
-0.007367116
-0.01278751
-0.01796733
0.03687379
-0.01823264
-0.01928779
-0.012647
-0.01895993
0.03631155
-0.01828515
-0.01819626
-0.01258822
-0.01970173
0.03645756
-0.0178596
-0.0159802
-0.01484447
-0.02042638
0.0360847
-0.01870346
-0.01895581
-0.01959307
-0.02384272
0.03725481
-0.02135522
-0.01375156
-0.01512142
-0.02379052
0.0383537
-0.03158955
-0.01892788
-0.01155642
-0.01089108
0.03495752
-0.009166373
-0.02352977
-0.02367867
0.01689582
-0.009147006
-0.005050716
0.008591508
0.0642695
0.007450331
0.01220838
0.01904666
0.008196617
0.009782987
0.004067248
-0.0005815843
0.007085182
0.001906595
0.02440127
-0.000415182
-0.009039698
0.001133245
0.02935376
2.114545e-05
-0.006290244
0.005226934
0.03091539
0.0007781247
-0.005551157
0.005582157
0.03161102
0.001521437
-0.005942055
0.004760119
0.03143712
0.001677882
-0.006179697
0.004037542
0.03130659
0.000948341
-0.006240181
0.003345654
0.03027637
0.002379665
-0.006233935
0.002760337
0.03092608
0.002656045
-0.006573193
0.003753719
0.03049699
0.003690902
-0.006963656
0.003190728
0.03026728
0.00289407
-0.00670527
0.002685932
0.0301013
0.004086283
-0.006228567
0.002088259
0.0295542
0.001643811
-0.007179373
0.003729314
0.02885243
0.002017676
-0.009631449
0.003467765
0.03014931
0.002071261
-0.009291785
0.003180511
0.03034429
0.002347129
-0.009095751
-0.003667714
0.02965374
4.667673e-05
-0.009006443
0.004680219
0.02946942
0.001149211
-0.009173227
0.00274368
0.03066973
0.0005932488
-0.007113691
0.003707426
0.006631082
-6.04482e-05
0.01273284
-0.007654739
-0.006573124
1.44567e-05
0.01989526
0.0005024787
0.001523813
0.002046779
0.01988104
0.004498539
-0.004750655
0.008308583
0.0004507472
0.02436331
-2.286481e-05
0.02176366
0.000879332
0.01118161
0.01965605
0.006964245
0.008570395
0.0005886934
0.009810547
0.006950058
-0.004180939
-0.01085506
-0.0167934
-0.002072244
-0.005064885
0.005261556
-0.03928419
-0.03988091
-0.01188359
0.009442897
0.00691221
-0.01368118
-0.06527356
-0.008260403
-0.01207511
-0.01649407
0.001839892
0.005812701
-0.01492876
0.0005578632
-0.007895944
0.004083112
0.01947621
0.0001837999
-0.003455945
-0.0005607393
-0.01512622
0.0003715667
-0.01509129
0.000881442
0.00976407
-0.0003779462
0.002572444
-0.001683948
-0.01570004
0.001751543
-0.008882259
0.001902268
0.01594901
0.001010213
-0.00164705
-0.001343544
-0.01510198
0.001151909
-0.01259763
0.001209296
0.01132877
0.0002232179
0.0008166475
-0.00165009
-0.01532074
0.001343612
-0.01063146
0.0003212492
-0.0009206451
-0.005151952
-0.02288155
0.0008656204
-0.003856495
0.0005421862
-0.007066621
-0.001908496
0.00742848
6.94299e-05
-0.006380519
-0.0007231374
-0.0243045
0.0004467883
0.008982828
-0.001099836
0.008410736
-0.004403303
-0.02870881
0.0008789957
-0.02902582
5.417455e-05
0.00643223
-0.005603629
0.01007376
-0.004567294
-0.02931198
-6.837942e-05
-0.03084597
-0.001137779
0.005714317
-0.005541901
0.01113925
-0.004767367
-0.03075433
-0.0006041853
-0.03156136
-0.001720225
0.006051248
-0.004720083
0.01162172
-0.004750299
-0.03009629
-0.001086656
-0.0310591
-0.002196149
0.006065081
-0.004035916
0.01225884
-0.00409503
-0.02999119
-0.001374056
-0.03122307
-0.002181704
0.006069406
-0.003345737
0.01269701
-0.004013417
-0.02871923
-0.001511461
-0.03064954
-0.00255344
0.00572591
-0.002909923
0.01314442
-0.003841457
-0.02797309
-0.001446215
-0.02906448
-0.002780901
0.008579768
-0.006020751
0.01175944
0.005457901
-0.03006293
-0.00362358
-0.02971685
-0.004366334
0.007634803
-0.002898814
0.002777489
-0.003600411
-0.02938566
0.009575943
-0.03096156
-0.001416886
0.006055103
-0.01272441
0.01044588
0.006000762
-0.03130681
-0.003343547
-0.02912403
-0.0005739113
0.008747849
-0.003208381
0.01017534
0.001109162
-0.03294212
-0.002186868
-0.0298899
-0.005019558
0.005659523
-0.002322043
-0.0001712733
-0.0001424594
-0.01713832
-0.002244285
-0.004505419
-0.007442511
-0.02441823
0.0008034455
-0.03229332
-0.001062679
0.009006102
-0.005444596
-0.03490323
0.005421986
0.0003321744
-0.002002948
0.002937848
-0.05294032
-0.009421426
-0.02641163
0.03563756
0.05076378
-0.03569689
0.03046731
0.003701488
-0.0005421118
-0.01212114
0.005993083
-0.001378281
-0.03945026
0.006480694
0.003245255
0.03908338
0.0239887
0.00761803
0.003178487
0.04814124
0.02463273
0.004537047
0.002874765
0.0405355
0.02498978
0.004874482
0.002754183
0.04083978
0.02605746
0.004698015
0.002693851
0.04155422
0.02657866
0.005739274
0.002663858
0.04211248
0.02699614
0.006360744
0.002660321
0.04239365
0.02709337
0.0104187
0.002649578
0.04281401
0.02644523
0.008484846
0.002702934
0.04228486
0.0268422
0.01111998
0.01045344
0.02040391
0.02658459
0.007474764
0.002777615
0.04221041
0.02688613
0.01114365
0.003928506
0.03837433
0.02671425
0.008657973
0.002890645
0.04181646
0.02699427
0.009234727
0.01103385
0.01955697
0.02738337
0.009424392
0.006907414
0.02991261
0.02698715
0.01148301
0.01144398
0.01608893
0.02672454
0.008520308
0.006203121
0.03125868
0.0273304
0.01154617
0.01329461
0.01977811
0.02672414
0.007133425
0.01008074
0.0225733
0.02792891
0.01256753
0.01371787
0.02105128
0.02788419
0.007538775
0.008578132
0.02968608
0.02913579
0.01059718
0.01202492
0.02478939
0.02811106
0.009778775
0.00713268
0.03734088
0.02847493
0.0007310339
0.00577413
0.003490689
0.001754795
-0.0312302
0.02020305
-0.02597403
-0.005171547
0.01521953
-0.000141385
-0.0009718801
0.0211187
0.03584568
0.001435518
0.001900997
-0.005103645
-0.004368604
-0.00501394
0.02060389
0.02070424
0.007646532
0.009900346
0.009471329
0.0001874586
0.05142272
0.02493483
0.009039493
0.003214846
0.04117064
0.02591007
0.00456782
0.002829164
0.04078093
0.02601659
0.004998749
0.002614914
0.04109016
0.02650189
0.00417045
0.002546917
0.04118718
0.02663646
0.003301744
0.002493102
0.04147478
0.02686185
0.00302252
0.002469038
0.04139599
0.02663362
0.003141678
0.002449595
0.04168476
0.02659056
0.002648209
0.002439201
0.03340614
0.02670143
0.005328581
0.002380538
0.04087701
0.02670552
0.002454433
0.002412835
0.03949513
0.02653222
0.003352261
0.002394521
0.04116279
0.02692693
0.002297759
0.002402809
0.03356945
0.02783299
0.003911399
0.002344337
0.03591585
0.02678416
0.002889522
0.002303733
0.03188952
0.02781681
0.00435711
0.002320834
0.03357913
0.02676672
0.002881453
0.002274102
0.03487195
0.02934105
0.001616481
0.002301399
0.03259389
0.02758581
0.003151706
0.002259486
0.03557574
0.02984819
0.001939854
0.002359336
0.03523697
0.02801242
0.009595896
0.002316688
0.04014852
0.03020816
0.01175093
0.002456113
0.0479416
0.02808905
0.01013005
0.002357692
0.003045265
0.03003672
0.04073832
0.005351441
-0.001543098
0.007960183
-0.007704911
0.0008372273
-6.619733e-05
0.02351643
-0.003404817
-0.005996129
0.006573999
7.768334e-05
3.944563e-05
0.006405664
-0.008870555
-0.0002467691
0.001496773
0.02507085
0.001285614
0.02666449
-0.02250685
-0.02087423
-0.007335661
-0.009985695
0.0001781397
-0.0002127182
0.00810541
-0.000330045
-0.0001571024
4.103637e-05
0.007786077
6.134458e-05
-0.001030178
-0.0001047478
0.0004965969
0.002995496
-0.00615332
-0.00341803
-0.02395958
-0.03933005
-0.05132517
-0.02492475
-0.008989618
-0.003230169
-0.004598969
-0.002730239
-0.02660347
-0.04133004
-0.04087583
-0.02655307
-0.003292035
-0.00250503
-0.00597309
-0.002704333
-0.0270855
-0.04194592
-0.04144768
-0.02657623