/*--------------------------------*- C++ -*----------------------------------*\
  =========                 |
  \\      /  F ield         | OpenFOAM: The Open Source CFD Toolbox
   \\    /   O peration     | Website:  https://openfoam.org
    \\  /    A nd           | Version:  7
     \\/     M anipulation  |
\*---------------------------------------------------------------------------*/
FoamFile
{
    version     2.0;
    format      ascii;
    class       volScalarField;
    location    "0.05";
    object      epsilon;
}
// * * * * * * * * * * * * * * * * * * * * * * * * * * * * * * * * * * * * * //

dimensions      [0 2 -3 0 0 0 0];

internalField   nonuniform List<scalar> 
89125
(
0.002079421
0.002185977
0.002204876
0.002207632
0.002207898
0.002208026
0.002207937
0.00220791
0.0009556039
0.000987453
0.00100298
0.001007267
0.001008431
0.001008773
0.001008864
0.001008895
0.001008866
0.004724894
0.0009743779
0.001014328
0.001028623
0.001032945
0.001034257
0.001034737
0.001034953
0.001034969
0.00103494
0.004722419
0.0009811354
0.001024228
0.001040068
0.001044721
0.001046261
0.001046781
0.001047032
0.001047043
0.001047007
0.004724757
0.0009826006
0.001026618
0.001042998
0.001047901
0.001049518
0.001050138
0.001050365
0.001050433
0.001050361
0.004725504
0.0009828668
0.001026976
0.001043444
0.001048373
0.001050013
0.001050656
0.001050876
0.001050959
0.001050885
0.004725963
0.0009823896
0.00102593
0.001042016
0.001046729
0.001048258
0.00104887
0.001049026
0.001049154
0.001049061
0.00472606
0.0009801764
0.001021802
0.001036773
0.001040934
0.00104226
0.001042823
0.001042939
0.001043095
0.001043002
0.004725307
0.0009718577
0.001007069
0.001018681
0.001021738
0.001022672
0.001023123
0.00102306
0.001023302
0.001023248
0.004721009
0.0009423389
0.0009587985
0.0009651918
0.000966445
0.0009668795
0.0009678703
0.0009671589
0.0009685518
0.0009678698
0.004736928
0.00198131
0.002049916
0.002066682
0.0020576
0.002057329
0.002058797
0.002094589
0.0020954
0.002064551
0.009069641
0.009079459
0.004306268
0.009223985
0.009065057
0.009138241
0.01011003
0.00454569
0.009246136
0.001928545
0.001961411
0.001969808
0.00195659
0.001955878
0.001955498
0.001955561
0.00195602
0.001965199
0.0009415676
0.0009652748
0.0009727208
0.0009743645
0.0009749343
0.0009751983
0.0009753203
0.0009754508
0.0009757391
0.000956996
0.0009975372
0.001010037
0.001013279
0.001014256
0.001014633
0.00101479
0.001014856
0.001014874
0.0009637432
0.001010191
0.001026161
0.001030586
0.001031957
0.001032471
0.001032671
0.001032729
0.001032694
0.0009655769
0.001014026
0.001031287
0.001036343
0.001037974
0.001038594
0.001038832
0.001038897
0.00103885
0.0009660938
0.001015206
0.001032955
0.001038294
0.001040065
0.00104075
0.001041012
0.001041083
0.001041032
0.0009662092
0.001015566
0.001033504
0.001038962
0.001040798
0.001041513
0.001041789
0.001041866
0.001041813
0.0009662015
0.001015677
0.001033699
0.001039214
0.001041086
0.001041818
0.001042104
0.001042183
0.001042129
0.01141028
0.01139607
0.01139555
0.01139555
0.01139555
0.01139553
0.01139555
0.01139553
0.01139553
0.002086517
0.01139258
0.01139363
0.01139358
0.01139358
0.01139356
0.01139355
0.01139357
0.01139354
0.01139355
0.0009801021
0.01139118
0.01139379
0.01139366
0.01139363
0.01139363
0.01139362
0.01139361
0.01139361
0.01139361
0.0009946306
0.01139065
0.0113935
0.01139355
0.01139352
0.01139352
0.01139352
0.01139351
0.01139351
0.01139351
0.001000085
0.0113894
0.01139349
0.01139349
0.01139344
0.01139344
0.01139341
0.01139343
0.01139341
0.01139342
0.001001003
0.0113905
0.01139199
0.01139151
0.01139104
0.01139113
0.01139052
0.01139137
0.01139048
0.01139079
0.001000861
0.01139123
0.01139293
0.01139255
0.01139217
0.01139219
0.0113917
0.01139263
0.01139187
0.01139197
0.0009992666
0.01138869
0.01138278
0.01137981
0.0113764
0.01137587
0.01137436
0.01137763
0.01137535
0.01137532
0.0009932492
0.01137931
0.01137546
0.01137526
0.01137158
0.01137613
0.01137303
0.01138541
0.01137516
0.0113755
0.0009735654
0.01137315
0.01132972
0.01131489
0.01130926
0.01130727
0.0113025
0.01132361
0.01130256
0.01130305
0.002125279
0.01143324
0.01144223
0.01143178
0.011429
0.01142876
0.01143034
0.01145007
0.01147893
0.01144954
0.005571437
0.01138614
0.01138344
0.01138346
0.0113835
0.01138351
0.01138351
0.01138351
0.01138351
0.01138351
0.002051084
0.01138576
0.01138585
0.01138586
0.01138586
0.01138586
0.01138586
0.01138586
0.01138586
0.01138586
0.002071411
0.01138572
0.01138581
0.01138583
0.01138583
0.01138583
0.01138582
0.01138582
0.01138582
0.01138582
0.002075264
0.01138571
0.01138579
0.0113858
0.0113858
0.0113858
0.0113858
0.0113858
0.0113858
0.0113858
0.002076062
0.01138571
0.01138578
0.01138579
0.01138578
0.01138578
0.01138578
0.01138578
0.01138578
0.01138578
0.002076297
0.0113857
0.01138577
0.01138578
0.01138577
0.01138577
0.01138577
0.01138577
0.01138576
0.01138577
0.002076313
0.0113857
0.01138577
0.01138577
0.01138577
0.01138576
0.01138576
0.01138576
0.01138576
0.01138576
0.002076111
0.0113857
0.01138577
0.01138577
0.01138576
0.01138576
0.01138576
0.01138576
0.01138576
0.01138576
0.01140798
0.01139682
0.01139662
0.01139671
0.01139668
0.01139668
0.01139668
0.01139667
0.01139666
0.002102389
0.01139518
0.01139577
0.01139556
0.0113956
0.01139557
0.01139557
0.01139558
0.01139557
0.01139556
0.000997863
0.01139349
0.01139567
0.01139559
0.01139558
0.01139555
0.01139556
0.01139556
0.01139555
0.01139556
0.001024822
0.01139363
0.01139556
0.01139553
0.0113955
0.01139549
0.0113955
0.01139549
0.0113955
0.01139549
0.001033942
0.01139312
0.0113955
0.01139549
0.01139545
0.01139545
0.01139546
0.01139545
0.01139548
0.01139547
0.001035749
0.01139331
0.0113955
0.01139549
0.01139544
0.01139545
0.01139546
0.01139545
0.01139548
0.01139546
0.001035457
0.01139313
0.01139556
0.01139546
0.01139538
0.0113954
0.01139551
0.01139545
0.01139563
0.01139557
0.001032735
0.01138569
0.01139586
0.01139592
0.01139594
0.01139563
0.01139559
0.01139563
0.01139561
0.01139558
0.001022374
0.01138043
0.01139752
0.01139567
0.01139631
0.01139628
0.01139723
0.01139598
0.01139833
0.01139617
0.0009882516
0.01134576
0.01140894
0.01140299
0.01139888
0.01139893
0.011398
0.01139999
0.01139799
0.01140347
0.002198297
0.01146288
0.01145121
0.01145491
0.01144376
0.0114395
0.01143901
0.01144438
0.01144207
0.01144576
0.005565993
0.01138339
0.0007258601
0.0007932576
0.0008167118
0.0008234285
0.0008254629
0.0008261953
0.0008264495
0.0008264501
0.0009695175
0.01138576
0.01138562
0.01138577
0.01138578
0.01138576
0.01138576
0.01138575
0.01138575
0.01138575
0.0009868721
0.01138571
0.01138781
0.01138781
0.01138781
0.01138781
0.01138781
0.01138781
0.01138781
0.01138781
0.0009948351
0.01138569
0.01138781
0.01138781
0.01138781
0.01138781
0.01138781
0.01138781
0.01138781
0.01138781
0.00099721
0.01138568
0.01138781
0.01138781
0.01138781
0.01138781
0.01138781
0.01138781
0.01138781
0.01138781
0.0009980029
0.01138568
0.01138781
0.01138781
0.01138781
0.01138781
0.01138781
0.01138781
0.01138781
0.01138781
0.0009982893
0.01138567
0.01138781
0.01138781
0.01138781
0.01138781
0.01138781
0.01138781
0.01138781
0.01138781
0.0009983979
0.01138567
0.01138781
0.01138781
0.01138781
0.01138781
0.01138781
0.01138781
0.01138781
0.01138781
0.01140793
0.01139681
0.01139662
0.01139659
0.01139662
0.01139662
0.01139662
0.01139661
0.01139661
0.002106655
0.011395
0.01139564
0.01139551
0.01139552
0.01139552
0.01139553
0.01139553
0.01139552
0.01139552
0.001004519
0.01139358
0.01139563
0.01139558
0.01139552
0.01139552
0.01139552
0.01139552
0.01139552
0.01139551
0.001035186
0.01139363
0.01139556
0.01139555
0.01139549
0.01139548
0.01139548
0.01139547
0.01139547
0.01139547
0.00104643
0.01139331
0.0113955
0.0113955
0.01139545
0.01139544
0.01139543
0.01139541
0.01139542
0.0113954
0.00104875
0.01139311
0.01139549
0.01139548
0.01139543
0.01139542
0.0113954
0.01139538
0.01139539
0.01139538
0.001048367
0.01139307
0.01139546
0.0113955
0.01139546
0.01139539
0.01139536
0.0113953
0.0113953
0.01139525
0.001045007
0.0113822
0.01139592
0.01139563
0.01139548
0.01139551
0.01139558
0.01139578
0.01139607
0.01139597
0.001032228
0.01138294
0.01139581
0.01139694
0.01139627
0.01139579
0.0113956
0.01139546
0.01139544
0.01139536
0.0009940698
0.01133262
0.01140379
0.01140411
0.01140643
0.01141164
0.01140795
0.01140526
0.01140538
0.01140351
0.002208554
0.01143479
0.01145374
0.01144367
0.01147104
0.01146803
0.01146402
0.0114589
0.0114661
0.01146318
0.005529565
0.01138344
0.0007931667
0.0008818572
0.000920892
0.0009327003
0.0009362802
0.0009375568
0.0009379459
0.000937846
0.0009827696
0.0113858
0.01138578
0.01138592
0.01138594
0.01138592
0.01138592
0.01138591
0.01138591
0.01138591
0.001012255
0.01138578
0.01138781
0.01138781
0.01138781
0.01138781
0.01138781
0.01138781
0.01138781
0.01138781
0.001024141
0.01138576
0.01138781
0.01138781
0.01138781
0.01138781
0.01138781
0.01138781
0.01138781
0.01138781
0.001027811
0.01138574
0.01138781
0.01138781
0.01138781
0.01138781
0.01138781
0.01138781
0.01138781
0.01138781
0.001029042
0.01138573
0.01138781
0.01138781
0.01138781
0.01138781
0.01138781
0.01138781
0.01138781
0.01138781
0.001029506
0.01138573
0.01138781
0.01138781
0.01138781
0.01138781
0.01138781
0.01138781
0.01138781
0.01138781
0.001029699
0.01138573
0.01138781
0.01138781
0.01138781
0.01138781
0.01138781
0.01138781
0.01138781
0.01138781
0.01140784
0.01139677
0.01139655
0.0113966
0.01139659
0.01139661
0.01139659
0.01139659
0.01139658
0.002106913
0.01139505
0.01139562
0.01139543
0.01139548
0.01139546
0.01139549
0.01139547
0.01139547
0.01139547
0.001005979
0.01139357
0.01139562
0.01139551
0.01139546
0.01139544
0.01139544
0.01139543
0.01139544
0.01139544
0.001037574
0.01139362
0.01139555
0.01139552
0.01139544
0.01139542
0.01139542
0.0113954
0.01139543
0.01139542
0.001049362
0.01139288
0.01139546
0.01139548
0.01139537
0.01139537
0.01139539
0.01139535
0.01139542
0.0113954
0.001051764
0.01139293
0.01139544
0.01139544
0.01139535
0.01139533
0.01139533
0.01139531
0.01139537
0.01139536
0.001051239
0.01139254
0.01139536
0.01139544
0.01139523
0.01139521
0.01139531
0.01139523
0.01139547
0.01139542
0.001047585
0.01138036
0.01139582
0.01139539
0.01139554
0.01139553
0.01139528
0.01139539
0.01139534
0.01139543
0.001034142
0.01138047
0.01139609
0.01139592
0.01139541
0.01139575
0.01139628
0.01139625
0.01139689
0.01139657
0.0009952913
0.0113288
0.01139883
0.01140248
0.01140377
0.01140485
0.01140434
0.01140575
0.01140723
0.01140307
0.002210477
0.01144371
0.01144504
0.01145666
0.01145246
0.0114635
0.01144738
0.0114611
0.01147075
0.01144488
0.00542159
0.01138348
0.0008148541
0.0009178943
0.0009650227
0.0009797225
0.0009842028
0.000985799
0.0009862765
0.0009861348
0.0009870865
0.01138581
0.01138579
0.01138594
0.01138597
0.01138595
0.01138594
0.01138594
0.01138594
0.01138594
0.001019967
0.01138579
0.01138781
0.01138781
0.01138781
0.01138781
0.01138781
0.01138781
0.01138781
0.01138781
0.001034061
0.01138577
0.01138781
0.01138781
0.01138781
0.01138781
0.01138781
0.01138781
0.01138781
0.01138781
0.001038378
0.01138576
0.01138781
0.01138781
0.01138781
0.01138781
0.01138781
0.01138781
0.01138781
0.01138781
0.001039825
0.01138575
0.01138781
0.01138781
0.01138781
0.01138781
0.01138781
0.01138781
0.01138781
0.01138781
0.001040377
0.01138575
0.01138781
0.01138781
0.01138781
0.01138781
0.01138781
0.01138781
0.01138781
0.01138781
0.001040607
0.01138574
0.01138781
0.01138781
0.01138781
0.01138781
0.01138781
0.01138781
0.01138781
0.01138781
0.01140786
0.01139684
0.01139657
0.01139657
0.01139659
0.01139659
0.01139659
0.01139659
0.01139658
0.0021072
0.01139503
0.0113956
0.01139544
0.01139546
0.01139546
0.01139546
0.01139546
0.01139546
0.01139546
0.001005681
0.01139355
0.01139562
0.01139551
0.01139547
0.01139545
0.01139545
0.01139544
0.01139546
0.01139545
0.001037042
0.01139364
0.01139554
0.01139552
0.01139544
0.01139543
0.01139543
0.01139541
0.01139544
0.01139543
0.001048622
0.01139334
0.01139545
0.01139548
0.01139538
0.01139538
0.01139539
0.01139537
0.01139544
0.01139542
0.001050792
0.01139307
0.01139544
0.01139545
0.01139536
0.01139534
0.01139533
0.01139532
0.01139538
0.01139536
0.001049881
0.01139295
0.01139536
0.01139544
0.01139524
0.01139523
0.0113953
0.01139525
0.01139548
0.01139543
0.001046018
0.01137993
0.01139581
0.01139544
0.01139557
0.01139554
0.01139532
0.01139545
0.01139537
0.01139547
0.001032791
0.01138122
0.01139622
0.01139579
0.01139544
0.01139576
0.01139621
0.01139621
0.01139682
0.01139651
0.0009945198
0.01132839
0.01139882
0.01140251
0.01140447
0.01140494
0.01140429
0.01140682
0.01140715
0.01140344
0.002210899
0.01142784
0.01144317
0.0114534
0.01145667
0.01146127
0.01144823
0.01146529
0.0114696
0.0114445
0.00493827
0.01138347
0.0008148488
0.0009179111
0.0009650211
0.0009797166
0.0009841983
0.000985795
0.0009862707
0.0009861263
0.0009862492
0.01138581
0.01138579
0.01138594
0.01138597
0.01138595
0.01138594
0.01138594
0.01138594
0.01138594
0.00101984
0.01138579
0.01138781
0.01138781
0.01138781
0.01138781
0.01138781
0.01138781
0.01138781
0.01138781
0.001034026
0.01138577
0.01138781
0.01138781
0.01138781
0.01138781
0.01138781
0.01138781
0.01138781
0.01138781
0.001038366
0.01138576
0.01138781
0.01138781
0.01138781
0.01138781
0.01138781
0.01138781
0.01138781
0.01138781
0.001039817
0.01138575
0.01138781
0.01138781
0.01138781
0.01138781
0.01138781
0.01138781
0.01138781
0.01138781
0.001040361
0.01138575
0.01138781
0.01138781
0.01138781
0.01138781
0.01138781
0.01138781
0.01138781
0.01138781
0.001040574
0.01138574
0.01138781
0.01138781
0.01138781
0.01138781
0.01138781
0.01138781
0.01138781
0.01138781
0.01140788
0.01139671
0.0113965
0.01139656
0.01139654
0.01139656
0.01139654
0.01139657
0.01139658
0.002106501
0.01139505
0.01139564
0.01139549
0.0113955
0.0113955
0.0113955
0.0113955
0.01139549
0.01139548
0.001002918
0.01139357
0.01139565
0.01139556
0.01139556
0.01139554
0.01139554
0.01139553
0.01139554
0.01139553
0.001031818
0.01139365
0.01139558
0.01139555
0.0113955
0.01139549
0.01139549
0.01139548
0.01139548
0.01139547
0.001042192
0.01139285
0.01139549
0.0113955
0.01139547
0.01139546
0.01139544
0.01139543
0.01139542
0.01139542
0.001043216
0.01139114
0.01139549
0.01139549
0.01139544
0.01139543
0.0113954
0.01139538
0.01139541
0.0113954
0.001041218
0.01138882
0.01139545
0.01139549
0.01139547
0.01139542
0.01139534
0.01139534
0.0113953
0.01139527
0.001036325
0.01138196
0.01139601
0.01139571
0.01139557
0.0113956
0.01139569
0.01139586
0.01139614
0.0113961
0.001024034
0.01138131
0.01139576
0.01139675
0.01139621
0.0113959
0.01139561
0.01139545
0.01139548
0.01139537
0.0009891625
0.01133372
0.01140432
0.01140448
0.01140628
0.01141271
0.01140946
0.01140567
0.01140546
0.01140396
0.002208016
0.01142674
0.01145359
0.01144356
0.01146971
0.01146754
0.01145965
0.01145799
0.01146633
0.01146169
0.005044612
0.01138343
0.0007931654
0.0008818756
0.0009208907
0.0009326947
0.0009362715
0.0009375439
0.0009379209
0.0009378091
0.0009826276
0.0113858
0.01138578
0.01138592
0.01138594
0.01138592
0.01138592
0.01138591
0.01138591
0.01138591
0.001012084
0.01138578
0.01138781
0.01138781
0.01138781
0.01138781
0.01138781
0.01138781
0.01138781
0.01138781
0.001024072
0.01138576
0.01138781
0.01138781
0.01138781
0.01138781
0.01138781
0.01138781
0.01138781
0.01138781
0.001027774
0.01138574
0.01138781
0.01138781
0.01138781
0.01138781
0.01138781
0.01138781
0.01138781
0.01138781
0.001029019
0.01138573
0.01138781
0.01138781
0.01138781
0.01138781
0.01138781
0.01138781
0.01138781
0.01138781
0.00102944
0.01138573
0.01138781
0.01138781
0.01138781
0.01138781
0.01138781
0.01138781
0.01138781
0.01138781
0.001029537
0.01138573
0.01138781
0.01138781
0.01138781
0.01138781
0.01138781
0.01138781
0.01138781
0.01138781
0.01140834
0.01139705
0.01139675
0.01139676
0.01139676
0.01139674
0.01139676
0.0113968
0.01139704
0.002098418
0.01139517
0.01139576
0.01139566
0.01139568
0.01139567
0.01139567
0.01139567
0.01139567
0.01139566
0.000997245
0.01139354
0.01139568
0.01139561
0.01139562
0.01139561
0.01139561
0.01139561
0.01139562
0.01139562
0.001008104
0.01139368
0.01139556
0.01139555
0.01139551
0.01139551
0.01139551
0.01139551
0.01139552
0.01139551
0.001027728
0.01139253
0.01139549
0.01139551
0.01139545
0.01139546
0.01139546
0.01139547
0.01139549
0.01139548
0.00101573
0.01138467
0.01139554
0.01139552
0.01139545
0.01139547
0.01139547
0.01139548
0.01139549
0.01139549
0.00101941
0.01138467
0.01139563
0.01139547
0.01139538
0.01139542
0.01139542
0.0113955
0.01139561
0.01139557
0.001005582
0.01138471
0.01139601
0.01139604
0.01139606
0.01139576
0.01139569
0.01139573
0.01139574
0.01139568
0.0009966608
0.01138985
0.01139628
0.01139585
0.01139579
0.01139639
0.01139605
0.01139592
0.01139813
0.01139593
0.0009742248
0.01135918
0.01141009
0.01140321
0.01140023
0.01139875
0.01139894
0.01140013
0.0113985
0.01140432
0.002186564
0.01142453
0.01145101
0.0114544
0.01144343
0.01143839
0.01144345
0.01144304
0.01144098
0.01144498
0.002105578
0.0113834
0.0007258402
0.0007932097
0.0008166828
0.0008234158
0.0008254504
0.0008261717
0.0008263888
0.0008263311
0.0009689941
0.01138576
0.01138562
0.01138577
0.01138578
0.01138576
0.01138576
0.01138575
0.01138575
0.01138575
0.0009867702
0.01138571
0.01138781
0.01138781
0.01138781
0.01138781
0.01138781
0.01138781
0.01138781
0.01138781
0.0009947124
0.01138569
0.01138781
0.01138781
0.01138781
0.01138781
0.01138781
0.01138781
0.01138781
0.01138781
0.000997174
0.01138568
0.01138781
0.01138781
0.01138781
0.01138781
0.01138781
0.01138781
0.01138781
0.01138781
0.0009979892
0.01138568
0.01138781
0.01138781
0.01138781
0.01138781
0.01138781
0.01138781
0.01138781
0.01138781
0.0009981894
0.01138567
0.01138781
0.01138781
0.01138781
0.01138781
0.01138781
0.01138781
0.01138781
0.01138781
0.0009977892
0.01138567
0.01138781
0.01138781
0.01138781
0.01138781
0.01138781
0.01138781
0.01138781
0.01138781
0.01140617
0.01140673
0.01140678
0.01140708
0.01140673
0.01140699
0.01140669
0.01140692
0.01141159
0.002083903
0.01139398
0.01139395
0.01139396
0.01139396
0.01139397
0.01139398
0.01139404
0.01139401
0.01139399
0.002142013
0.01139245
0.01139369
0.01139366
0.01139368
0.01139366
0.01139367
0.01139367
0.01139369
0.01139367
0.0009947751
0.01139079
0.01139358
0.01139356
0.01139356
0.01139355
0.01139355
0.01139354
0.01139354
0.01139354
0.0009986752
0.01139037
0.01139343
0.0113935
0.01139347
0.01139346
0.01139346
0.01139346
0.01139345
0.01139345
0.0009986106
0.01138703
0.01139003
0.01139202
0.01139113
0.01139113
0.01139136
0.01139128
0.01139117
0.01139126
0.002240181
0.01139351
0.01139172
0.01139275
0.01139207
0.01139174
0.01139219
0.0113922
0.01139182
0.01139231
0.002218654
0.01138985
0.01138228
0.01137942
0.01137698
0.01137547
0.01137615
0.01137632
0.01137531
0.01137582
0.002205653
0.0113852
0.01137796
0.01137261
0.0113753
0.01137514
0.01138127
0.01138089
0.011376
0.01137983
0.002174435
0.01138377
0.01133229
0.01131408
0.0113099
0.01130594
0.01131638
0.0113169
0.01129792
0.01131522
0.002158858
0.01143079
0.01144362
0.01146147
0.01148441
0.01150396
0.01142884
0.01142824
0.01149103
0.01141617
0.004959766
0.01138614
0.01138343
0.01138346
0.0113835
0.01138351
0.01138351
0.01138351
0.01138351
0.01138351
0.002078619
0.01138576
0.01138584
0.01138586
0.01138586
0.01138586
0.01138586
0.01138585
0.01138585
0.01138585
0.002151813
0.01138572
0.01138581
0.01138583
0.01138583
0.01138583
0.01138582
0.01138582
0.01138582
0.01138582
0.002162582
0.01138571
0.01138579
0.0113858
0.0113858
0.0113858
0.0113858
0.0113858
0.0113858
0.0113858
0.002165245
0.01138571
0.01138578
0.01138579
0.01138578
0.01138578
0.01138578
0.01138578
0.01138578
0.01138578
0.002167706
0.0113857
0.01138577
0.01138578
0.01138577
0.01138577
0.01138577
0.01138576
0.01138576
0.01138576
0.002169123
0.0113857
0.01138577
0.01138577
0.01138577
0.01138576
0.01138576
0.01138576
0.01138576
0.01138576
0.002162199
0.0113857
0.01138577
0.01138577
0.01138576
0.01138576
0.01138576
0.01138576
0.01138576
0.01138576
0.01140761
0.01141026
0.01142592
0.01142437
0.01130057
0.01141502
0.0113023
0.0114154
0.01142658
0.004763139
0.000945815
0.0009667909
0.0009737782
0.0009761018
0.0009768562
0.0009768432
0.0009766401
0.0009764946
0.0009776866
0.004868346
0.0009687818
0.001008277
0.001020839
0.001024385
0.001025401
0.001025641
0.001025678
0.001025682
0.001025792
0.002125184
0.000978778
0.001022003
0.001037534
0.001041933
0.001043301
0.00104378
0.001043928
0.001043976
0.001043951
0.002190893
0.0009807181
0.001025442
0.001041945
0.001046833
0.001048419
0.001049007
0.001049225
0.001049278
0.001049217
0.002224079
0.0009803895
0.001025925
0.001042772
0.001047817
0.001049496
0.001050117
0.001050358
0.001050425
0.001050355
0.002186733
0.00097763
0.001024579
0.001041407
0.001046374
0.001047993
0.001048573
0.001048816
0.001048884
0.001048814
0.004736504
0.0009740554
0.001020093
0.001036141
0.00104065
0.001042114
0.001042586
0.001042811
0.00104289
0.00104279
0.00488055
0.0009652524
0.001005482
0.001018047
0.001021507
0.001022577
0.001022851
0.001022962
0.001023067
0.001022929
0.004396531
0.0009384816
0.000957973
0.0009646951
0.0009662757
0.0009671328
0.0009669331
0.0009671578
0.0009674649
0.0009670133
0.004872645
0.01134917
0.0112948
0.01130492
0.01129177
0.01130597
0.01131294
0.01132702
0.01130404
0.01131166
0.01193036
0.01190793
0.01186074
0.01190763
0.01200263
0.01189889
0.01193283
0.01191817
0.01186992
0.005048514
0.01137957
0.01137966
0.01137963
0.01137962
0.01137962
0.01137962
0.01137962
0.01137962
0.01137963
0.004594202
0.0009416719
0.0009650293
0.0009724606
0.0009742951
0.0009749223
0.0009751898
0.0009753003
0.0009753412
0.000975357
0.00464688
0.0009569657
0.0009975003
0.001009989
0.001013259
0.001014247
0.001014629
0.00101478
0.001014823
0.001014797
0.004647812
0.0009638546
0.001010226
0.001026163
0.001030582
0.00103195
0.001032466
0.001032665
0.001032718
0.001032678
0.004578469
0.0009660454
0.001014123
0.001031305
0.00103634
0.001037964
0.001038583
0.001038821
0.001038886
0.00103884
0.002102038
0.0009666252
0.001015329
0.001032975
0.001038287
0.001040047
0.001040728
0.001040991
0.001041065
0.001041018
0.004606397
0.0009666223
0.001015674
0.001033513
0.001038936
0.001040761
0.001041472
0.001041749
0.00104183
0.001041786
0.004578654
0.0009666006
0.00101577
0.001033691
0.00103915
0.001041002
0.001041731
0.001042023
0.001042115
0.001042078
0.001965183
0.01144544
0.004929181
0.01139631
0.009204674
0.00410517
0.01178918
0.001878217
0.009201865
0.004152578
0.004090998
0.01203764
0.01210703
0.001936623
0.001970209
0.004350474
0.004113132
0.00429238
0.01197487
0.01187346
0.002000638
0.002019585
0.009107435
0.004215596
0.00409127
0.01187439
0.01189739
0.002020783
0.002012535
0.009170246
0.004085969
0.004083338
0.01188721
0.01189375
0.002008966
0.002008454
0.0091967
0.004083337
0.004083835
0.0118892
0.01188845
0.002008441
0.002008624
0.009559135
0.004083209
0.004083409
0.01187362
0.01191844
0.00200893
0.002009051
0.00440108
0.004083015
0.004084029
0.01194606
0.01211229
0.002008967
0.002009005
0.00908661
0.004083757
0.004091862
0.01186534
0.01189116
0.0020095
0.002011718
0.004305852
0.004113118
0.00429321
0.01187865
0.01187768
0.002020021
0.002028829
0.001880777
0.00195339
0.005661264
0.01137924
0.004613053
0.01138375
0.001928724
0.001972516
0.004626309
0.01137974
0.004646372
0.01137989
0.001982748
0.00198875
0.004647138
0.01138001
0.004649456
0.01138002
0.001989806
0.001990551
0.004649438
0.01138004
0.004649948
0.01138004
0.001990659
0.001990769
0.004649897
0.01138005
0.004650071
0.01138004
0.001990768
0.001990784
0.004650026
0.01138004
0.004650069
0.01138004
0.001990731
0.001990666
0.004650028
0.01138004
0.004649816
0.01138004
0.001990545
0.001990454
0.004649577
0.01138004
0.004648662
0.01138004
0.01143373
0.00471528
0.01139425
0.01143193
0.004836607
0.0113927
0.01205841
0.001922583
0.01212398
0.00195455
0.01142861
0.004840384
0.01139277
0.01143089
0.004842536
0.01139281
0.01195086
0.001975392
0.01190548
0.001985194
0.01142848
0.004843143
0.01139253
0.01143086
0.004842147
0.01139268
0.01190298
0.001992219
0.01190093
0.006294294
0.001999718
0.01142846
0.004842758
0.01139278
0.0114309
0.004841945
0.01139272
0.01189489
0.001995599
0.01188096
0.006284472
0.001998955
0.01142846
0.004843086
0.01139269
0.01143087
0.004842162
0.01139277
0.01190028
0.006280296
0.001998506
0.01188905
0.00468645
0.001990691
0.01142845
0.004842759
0.0113926
0.01143089
0.004840764
0.0113928
0.01189614
0.001990591
0.01190631
0.006367166
0.001998265
0.01142847
0.004840338
0.01139261
0.0114316
0.004832648
0.01139331
0.01188739
0.00580871
0.002004003
0.01191982
0.005807179
0.001994055
0.01143681
0.004833934
0.01139778
0.01143472
0.004724926
0.01139875
0.0121098
0.006361253
0.001963916
0.01209128
0.006289745
0.001928967
0.01143996
0.004970901
0.0113919
0.001943081
0.01140926
0.009976282
0.009973306
0.001959243
0.002013214
0.01141558
0.009966629
0.009964106
0.002028801
0.002027374
0.01141423
0.009972212
0.009975045
0.002027562
0.002037885
0.01129953
0.009963464
0.010007
0.004374718
0.002065626
0.00208438
0.01142303
0.01001017
0.009964962
0.004440835
0.002081248
0.002059811
0.01140964
0.009974921
0.009970535
0.004458647
0.002049122
0.002072283
0.01142231
0.01000004
0.009964821
0.004462447
0.002088833
0.002071152
0.01141568
0.009979429
0.009978203
0.002043346
0.002038005
0.01131818
0.009940139
0.009996352
0.002057636
0.002068006
0.01129403
0.00490282
0.01137816
0.001951109
0.002014033
0.01131484
0.002178567
0.01129817
0.002050024
0.004778433
0.002092732
0.01128038
0.002177125
0.01130026
0.004740796
0.002112076
0.004740605
0.002120207
0.01128823
0.002212982
0.01133648
0.004727184
0.002118546
0.005137091
0.002107389
0.01131383
0.002171398
0.01131594
0.002094685
0.002091625
0.01133412
0.002119806
0.01134374
0.005113902
0.002098342
0.004783513
0.002098875
0.01130182
0.004907158
0.01136066
0.005128024
0.002074818
0.002042546
0.01130768
0.004567171
0.01136095
0.002029758
0.002020131
0.01123019
0.004810831
0.01136039
0.002007104
0.001950807
0.01136694
0.01152295
0.001961601
0.004186872
0.0117678
0.006318616
0.001879551
0.01015439
0.004045235
0.0118758
0.001939833
0.001976461
0.01045333
0.01016397
0.004151539
0.004177214
0.01188804
0.001994629
0.002004213
0.009534855
0.009552056
0.004105827
0.004143204
0.0119022
0.002007133
0.002009178
0.009672003
0.009185918
0.004055807
0.004087599
0.01200038
0.002008542
0.002008746
0.009068493
0.009066217
0.004085902
0.004085943
0.0118804
0.002008795
0.002008882
0.009245793
0.009131025
0.004085324
0.004084283
0.0118456
0.0020091
0.002009392
0.0092935
0.004394523
0.00408437
0.004084893
0.01190298
0.002009152
0.002009151
0.00439175
0.009171796
0.004084697
0.004084044
0.01194089
0.002009467
0.002009892
0.00923937
0.009234716
0.004083708
0.004086402
0.01185956
0.002011986
0.002011153
0.009105971
0.009636649
0.004097063
0.004138898
0.01137926
0.004541408
0.0113838
0.001878982
0.001959786
0.01137974
0.004644741
0.01137989
0.001930236
0.001971582
0.01138001
0.004649156
0.01138001
0.001981611
0.001987619
0.01138004
0.004617038
0.01138004
0.001988893
0.001992416
0.01138006
0.004597575
0.01138006
0.001999248
0.002002081
0.01137587
0.002103759
0.01137587
0.002008491
0.002008297
0.01138006
0.004613475
0.01138005
0.001999538
0.001994638
0.01138006
0.004576412
0.01138003
0.001998885
0.001993091
0.01135161
0.00395467
0.00488614
0.002009947
0.002144197
0.01141411
0.01131236
0.009955944
0.01000372
0.002155555
0.002187506
0.00227074
0.01129162
0.01129502
0.009997002
0.009982103
0.00219989
0.002304121
0.002317114
0.01129481
0.01129401
0.009984481
0.009980245
0.002207294
0.002322072
0.002324106
0.0112938
0.01129329
0.009975476
0.009974536
0.002207885
0.002324872
0.002325232
0.01129356
0.01129357
0.009974034
0.009973656
0.002207944
0.00232535
0.002325405
0.01129362
0.01129359
0.009973985
0.009974031
0.002207952
0.002325534
0.002325551
0.01129363
0.01129371
0.009975049
0.009974918
0.002207952
0.002325507
0.002325514
0.01129378
0.01129382
0.0099755
0.009975581
0.002207902
0.002325503
0.002325496
0.01129386
0.01129396
0.009976041
0.009976374
0.001995466
0.004753095
0.002081904
0.004656203
0.01129237
0.002153408
0.01132068
0.00210547
0.004738835
0.002120013
0.002110429
0.01128751
0.002165291
0.01128486
0.002122614
0.004741051
0.002125179
0.002176287
0.01131911
0.002185162
0.01130732
0.002124942
0.004741567
0.002125996
0.002185617
0.0113058
0.002187302
0.01131907
0.002125404
0.004742224
0.00212619
0.002186602
0.01131036
0.002187609
0.01131976
0.002125449
0.004742604
0.002125998
0.002186767
0.01130611
0.00218753
0.01132147
0.002125016
0.004741798
0.002124487
0.002186465
0.01130119
0.002186325
0.011331
0.002121855
0.004738661
0.00211278
0.002183799
0.01130878
0.002176413
0.01132489
0.002095923
0.004725947
0.002023911
0.0021625
0.01113148
0.002103958
0.01135094
0.002007595
0.004054763
0.002148482
0.01133708
0.01153721
0.002033979
0.004098066
0.004099293
0.0112609
0.01126386
0.0117127
0.01188353
0.002064764
0.004107926
0.004380422
0.01128256
0.01129716
0.01160182
0.01163788
0.002061514
0.004375094
0.004128494
0.01131239
0.01129281
0.01155035
0.01173604
0.00205753
0.004087579
0.004105798
0.01129292
0.01129422
0.01166118
0.01182656
0.002057704
0.004090878
0.004090208
0.0112986
0.01129644
0.0116828
0.01175205
0.002066446
0.004116354
0.004151394
0.01130012
0.01129396
0.01170832
0.01179809
0.002067748
0.00446052
0.004136066
0.01133015
0.01129309
0.0116525
0.01181423
0.002068987
0.004100684
0.00437571
0.01129957
0.01133121
0.01161559
0.01163057
0.009227983
0.01174719
0.009211805
0.01182599
0.01178973
0.009556733
0.01177648
0.01197514
0.009185375
0.01183442
0.01175111
0.009182698
0.01185291
0.01174905
0.009207411
0.0118519
0.01172847
0.009570099
0.01183292
0.01201851
0.01136971
0.003843874
0.01136957
0.00393839
0.00194501
0.002004775
0.002079545
0.01137957
0.01137961
0.01137995
0.01137997
0.001972304
0.00210019
0.002111213
0.01137967
0.01137968
0.0113801
0.01138006
0.001960218
0.002112921
0.002112078
0.01137967
0.01137963
0.01138006
0.01138003
0.001955979
0.002111279
0.002111051
0.01137962
0.01137961
0.01138001
0.01138
0.001955815
0.002111019
0.002111027
0.01137961
0.01137961
0.01137999
0.01137999
0.001955386
0.002110998
0.002111009
0.01137961
0.01137961
0.01137999
0.01137998
0.001955747
0.002111062
0.002111161
0.01137961