/*--------------------------------*- C++ -*----------------------------------*\
  =========                 |
  \\      /  F ield         | OpenFOAM: The Open Source CFD Toolbox
   \\    /   O peration     | Website:  https://openfoam.org
    \\  /    A nd           | Version:  7
     \\/     M anipulation  |
\*---------------------------------------------------------------------------*/
FoamFile
{
    version     2.0;
    format      ascii;
    class       surfaceScalarField;
    location    "0.05";
    object      phi;
}
// * * * * * * * * * * * * * * * * * * * * * * * * * * * * * * * * * * * * * //

dimensions      [0 3 -1 0 0 0 0];

internalField   nonuniform List<scalar> 
266918
(
0.0003935582
-0.0001495659
-0.008414093
-0.00164837
-0.0001792765
0.0003772026
3.427465e-06
2.008561e-05
1.955673e-05
-0.007916896
-0.001555355
-4.846671e-07
1.117874e-05
-0.007853425
-0.001542877
5.679818e-06
-6.598961e-07
-0.007847869
-0.001539629
3.876212e-07
-7.133203e-07
-0.007829629
-0.001534583
1.960468e-06
-2.358262e-06
-0.007870622
-0.001537148
-2.769491e-06
2.773153e-06
-0.007839814
-0.001529803
-7.640756e-08
2.044816e-06
-0.007841535
-0.001527448
-0.000194679
-0.03593353
-0.001590172
0.008813249
0.008984802
0.01066907
0.01027617
0.0007191745
-0.001580475
0.0004247533
-0.000588356
-0.0003574093
-0.03646545
-0.001063375
0.008525233
0.008338641
0.01045059
0.01037709
-0.0001758283
-0.03630534
-0.001009037
0.008275423
0.008267255
0.01031384
0.01027627
-8.095006e-05
-0.0361489
-0.0009594216
0.008238529
0.008249128
0.01025917
0.01026662
-4.807788e-05
-0.03599552
-0.001029028
0.00824367
0.008242269
0.01025256
0.01025318
-5.609581e-05
-0.03592523
-0.0009761459
0.008218379
0.008213732
0.01023771
0.01023957
4.861677e-05
-0.03593337
-0.001146252
0.008252702
0.008246855
0.01023979
0.01023556
2.74394e-05
-0.03586144
-0.001008884
0.008225686
0.008228196
0.01022063
0.01021699
-0.03583014
-0.001096143
0.008234254
0.008235333
0.01022504
0.01021447
4.462612e-05
0.001826552
-3.628768e-05
-0.001736814
-5.345053e-05
0.0004322626
-0.03561436
1.817534e-05
0.001245776
-0.001541201
-5.090722e-05
-0.0004232734
0.0002826536
-0.03534152
-0.0009743225
0.0001757582
-0.03525197
-0.0009464789
1.836771e-05
-0.03517728
-0.000814231
3.281368e-05
-0.0350401
-0.0009698707
4.431434e-05
-0.03496008
-0.0009766565
6.3917e-05
-0.03512383
-0.0008291447
7.210818e-05
-0.03495731
-0.0009123213
-0.03498159
-0.000892012
0.0001155629
0.00187044
-5.49385e-05
-0.001761871
-5.362997e-05
-0.0001105963
-0.03560998
3.376527e-05
0.001466019
-0.001423288
0.0001391338
-0.0001094204
8.412069e-06
-0.03545245
-8.075291e-06
2.99225e-05
-0.03526231
-1.116552e-05
5.054757e-06
-0.03510991
-4.250432e-05
2.726226e-05
-0.0350578
-4.506614e-06
8.569628e-05
-0.03495469
-6.382022e-05
5.717876e-05
-0.03504654
-4.876996e-05
0.0001117205
-0.03494712
-6.473856e-05
-0.03495794
-3.269662e-05
0.000120772
0.00188697
-5.803194e-05
-0.001774824
-5.411374e-05
3.223126e-05
-0.0355595
-3.533315e-06
0.001447951
-0.00144932
4.430302e-05
-0.0001221093
7.485324e-06
-0.03532114
-0.000106571
4.170478e-05
-0.03523752
-5.901241e-05
2.626994e-05
-0.03502827
-6.620944e-05
1.612658e-05
-0.03496608
-8.15751e-05
7.259872e-05
-0.03498539
-2.577484e-05
4.140543e-05
-0.03489903
-0.0001163141
0.000108545
-0.03497389
-4.036344e-05
-0.03490902
-6.882637e-05
0.000128451
0.001891103
-5.621141e-05
-0.001780138
-5.475354e-05
6.366379e-05
-0.03569705
7.671026e-05
0.001458638
-0.001445916
8.381136e-05
-9.935371e-05
5.206816e-05
-0.03542294
0.0001134006
7.857062e-05
-0.03541507
0.0001510529
6.184525e-05
-0.0351934
0.000181862
6.668774e-05
-0.03514341
0.0001724883
0.0001130099
-0.03525378
0.0002220683
6.683681e-05
-0.03499918
0.0001463195
0.0001278881
-0.03526317
0.0002282237
-0.03514815
0.0001976331
0.0001693894
0.001896231
-5.788612e-05
-0.001783682
-5.466296e-05
-7.445789e-05
-0.03564546
1.890425e-05
0.001465924
-0.001440918
7.656202e-05
-9.759497e-05
-8.515464e-05
-0.03540361
-8.634301e-06
-2.277126e-05
-0.03549121
1.374861e-05
-2.056614e-05
-0.03522093
2.532364e-05
2.603113e-05
-0.03520917
1.91542e-05
0.0001024753
-0.03537796
4.773497e-05
5.689411e-05
-0.03495822
4.620618e-06
0.0001297517
-0.03538209
4.60621e-05
-0.03526526
6.931774e-05
0.0001775446
0.001896574
-6.249044e-05
-0.001780053
-5.403042e-05
0.0001975951
-0.03622566
0.0002688674
0.001471384
-0.001440983
0.0001376669
-5.432616e-05
0.0001930928
-0.03618395
0.0007848516
0.0002227351
-0.03649545
0.0009746045
0.0001786117
-0.03640151
0.001224706
0.0002196118
-0.03649122
0.001241058
0.0002567344
-0.03679489
0.001379806
8.182616e-05
-0.03591086
0.001127546
5.543293e-05
-0.03659035
0.001234661
-0.03669986
0.001261952
0.0002280749
0.001884973
-5.803272e-05
-0.001769704
-5.72367e-05
-0.0001876502
-0.03686996
0.0005934357
0.001435621
-0.001296335
6.485333e-05
3.43755e-05
-0.000278817
-0.03725135
0.001158566
-0.0001600747
-0.03765426
0.001040076
-0.0003521521
-0.03775039
0.001540954
-0.0002177719
-0.03755384
0.0009282365
-9.160773e-05
-0.03830599
0.001384938
-0.0001971086
-0.03606241
0.0002570616
-6.975067e-05
-0.03774292
0.00102521
-0.03783284
0.0009562603
0.000106972
0.00185893
-7.934812e-05
-0.001704553
-7.502911e-05
-2.966146e-05
-0.009216695
0.001648603
0.002085397
-0.0007077053
0.0009364368
-8.114918e-07
-0.009688942
-0.01081135
-0.01108523
0.000298887
-0.009613684
0.004399651
-0.009780154
-0.01118792
-0.01139778
0.0001533977
-0.00979021
0.005405446
-0.01011196
-0.01155958
-0.01145247
9.590024e-05
-0.0101329
0.005744025
-0.01026616
-0.01142363
-0.01161422
5.245343e-05
-0.01017771
0.005839211
-0.01026445
-0.01143498
-0.01147245
-2.468056e-05
-0.01031725
0.006126234
-0.01046117
-0.01168314
-0.01189352
0.0001434474
-0.01001715
0.005363484
-0.008365833
-0.01163614
-0.0115749
0.0002836722
-0.01018515
0.006302697
-0.01033883
-0.01183698
-0.01182488
-0.01039643
0.006183148
-0.0100116
-0.01156375
-0.01196994
0.0002094003
0.001687437
-5.510415e-05
-0.001611495
-2.08375e-05
0.0001410973
0.0001516514
0.001009435
-0.002896984
-0.002380164
-0.00290845
-0.002333278
-7.586411e-05
1.137899e-05
0.0008128038
-0.002852338
-0.002322755
-0.002831613
-0.002355295
2.594573e-05
-1.68836e-05
0.0005737556
-0.002917147
-0.002253079
-0.002807892
-0.002394907
-1.811555e-05
1.767143e-06
0.0007127466
-0.002916176
-0.002390025
-0.003019981
-0.002503107
-7.240352e-06
-2.98064e-05
0.000658393
-0.002941389
-0.002439767
-0.002925186
-0.0024927
3.535637e-05
-0.0001164858
0.0006761013
-0.003049936
-0.002529604
-0.002926361
-0.002406312
0.0004448471
-0.0002035572
0.0005764194
-0.002383039
-0.002876029
-0.002844254
-0.002731536
0.0004149935
0.0004938598
-0.0002929475
-0.002867334
-0.002678898
-0.002844769
-0.002410056
-0.0001224909
0.0001189911
0.0006507703
-0.002897188
-0.002434115
-0.003132208
-0.002580187
1.495907e-05
0.0004950284
-1.090065e-05
8.306181e-05
9.007075e-06
0.0004817304
5.502047e-06
8.454732e-05
9.592407e-05
0.001865839
0.0002814597
0.0001286002
0.0002393948
-1.439773e-05
0.0005111796
-8.374573e-06
9.322735e-05
1.968602e-05
0.0004772681
-3.441903e-07
8.529227e-05
-1.231932e-06
0.000512084
-1.779522e-05
8.887087e-05
-4.983659e-06
0.0004717067
3.769321e-05
-1.662314e-05
-0.0002412208
0.002356981
0.0001893586
0.0001255215
0.0002587089
-2.119609e-05
0.0005083367
2.659668e-06
9.070146e-05
-5.547612e-11
4.880953e-10
-6.654967e-10
4.393763e-10
-5.718756e-11
-8.056059e-11
-3.349086e-11
-3.599864e-11
3.014401e-11
9.033694e-10
-1.150678e-09
3.834407e-10
-3.036123e-11
-8.090787e-11
-2.089267e-11
-3.512628e-11
3.92954e-11
1.445763e-09
-1.660187e-09
3.31791e-10
3.604543e-12
-1.128951e-10
-4.390297e-11
-4.649133e-12
1.075328e-10
1.900179e-09
-2.182084e-09
3.287329e-10
-4.67291e-11
-1.273336e-10
9.808236e-12
8.515872e-12
1.510321e-10
2.477194e-09
-2.767063e-09
2.926698e-10
-4.745758e-11
-1.486072e-10
3.029824e-11
1.078932e-11
2.095644e-10
3.081234e-09
-3.383605e-09
2.739432e-10
-8.928285e-11
-1.616135e-10
5.130362e-11
1.762745e-11
2.509271e-10
3.735806e-09
-4.073822e-09
2.853744e-10
-1.055666e-10
-1.884915e-10
6.848758e-11
2.628616e-11
3.113392e-10
4.469392e-09
-4.812139e-09
2.796946e-10
-1.697811e-10
-2.147556e-10
9.114643e-11
4.351247e-11
4.120038e-10
5.275568e-09
-5.700647e-09
2.851186e-10
-2.187038e-10
-2.094046e-10
1.357772e-10
1.84492e-11
-3.662945e-09
4.671029e-09
1.526053e-10
3.07019e-10
7.669262e-10
3.555661e-10
5.608997e-10
-6.332735e-10
-8.572198e-10
-8.062229e-10
-8.563262e-10
-5.501687e-09
4.987844e-09
1.545012e-10
-5.972976e-10
-9.640301e-10
-8.428455e-10
-9.009188e-10
-7.439793e-09
5.055693e-09
1.15971e-10
-5.139958e-10
-9.985732e-10
-8.359385e-10
-8.863705e-10
-9.489084e-09
5.363383e-09
9.335771e-11
-4.530374e-10
-1.124321e-09
-8.850854e-10
-9.464647e-10
-1.169838e-08
5.719271e-09
1.426731e-10
-3.916684e-10
-1.2577e-09
-9.883616e-10
-1.016075e-09
-1.410713e-08
6.207901e-09
1.344944e-10
-3.682802e-10
-1.436932e-09
-9.873114e-10
-1.142248e-09
-1.674733e-08
6.831618e-09
1.099919e-10
-3.568753e-10
-1.632817e-09
-1.046389e-09
-1.267026e-09
-1.965713e-08
7.603742e-09
7.18655e-11
-3.831429e-10
-1.888732e-09
-1.09181e-09
-1.404802e-09
8.509914e-09
1.278649e-10
-4.170636e-10
-2.252406e-09
-1.159071e-09
-1.607066e-09
-2.286231e-08
-3.644481e-09
6.424246e-09
-2.615081e-11
7.739396e-11
7.724128e-10
3.915501e-10
6.745968e-10
-5.255761e-09
6.647175e-09
-4.886126e-11
-7.160303e-09
6.844156e-09
1.150615e-10
-9.160799e-09
7.209671e-09
1.532932e-10
-1.132091e-08
7.701342e-09
1.771384e-10
-1.361804e-08
8.30862e-09
1.953366e-10
-1.614676e-08
9.082945e-09
2.759032e-10
-1.890298e-08
1.001757e-08
3.401981e-10
1.113966e-08
3.996272e-10
-2.193459e-08
-3.457666e-09
8.233618e-09
-3.331049e-11
-2.835496e-10
9.599364e-10
2.954301e-10
7.083624e-10
-4.940269e-09
8.279704e-09
-1.511223e-10
-6.698229e-09
8.594635e-09
6.46848e-12
-8.513101e-09
9.020704e-09
2.697671e-12
-1.049758e-08
9.660399e-09
2.42743e-11
-1.264964e-08
1.043081e-08
2.869388e-11
-1.497443e-08
1.138368e-08
2.252207e-11
-1.752586e-08
1.253121e-08
3.591565e-11
1.390095e-08
4.308221e-11
-2.033244e-08
-3.140429e-09
9.966212e-09
-7.375898e-11
-3.742549e-10
9.279151e-10
2.251388e-10
7.011353e-10
-4.528315e-09
9.807692e-09
-1.410784e-10
-6.165748e-09
1.024417e-08
-1.345201e-11
-7.867318e-09
1.071989e-08
1.172023e-12
-9.692439e-09
1.145704e-08
2.723363e-11
-1.16416e-08
1.234573e-08
3.302368e-11
-1.375231e-08
1.344338e-08
4.955493e-11
-1.605194e-08
1.476804e-08
6.110936e-11
1.634487e-08
7.481686e-11
-1.857248e-08
-2.691651e-09
1.14515e-08
-1.304856e-10
-4.464513e-10
1.018775e-09
7.357641e-11
6.894895e-10
-4.040655e-09
1.125853e-08
-1.03237e-10
-5.543291e-09
1.17486e-08
-2.811172e-12
-7.069407e-09
1.226371e-08
-1.910976e-11
-8.709633e-09
1.30964e-08
-4.582073e-13
-1.045477e-08
1.409148e-08
-2.053588e-12
-1.234117e-08
1.53284e-08
-5.035051e-14
-1.438232e-08
1.68046e-08
2.909802e-12
1.855985e-08
4.572376e-12
-1.660355e-08
-2.40028e-09
1.262605e-08
-2.036296e-10
-3.037816e-10
1.073596e-09
-4.021202e-11
6.98103e-10
-3.627456e-09
1.255201e-08
-6.722446e-11
-4.897239e-09
1.305601e-08
-3.920349e-11
-6.255514e-09
1.363675e-08
-1.605551e-11
-7.682855e-09
1.452722e-08
-4.858307e-12
-9.205478e-09
1.56126e-08
1.997586e-13
-1.083577e-08
1.695203e-08
5.239038e-12
-1.258944e-08
1.854804e-08
8.827551e-12
2.043563e-08
1.224157e-11
-1.447888e-08
-2.052238e-09
-2.160204e-10
-3.438527e-10
1.109107e-09
-1.450572e-10
6.737321e-10
1.359913e-08
-3.11927e-09
-3.79894e-11
1.365567e-08
-4.173513e-09
-4.041205e-11
1.414991e-08
-5.330876e-09
-9.294979e-12
1.480228e-08
-6.541818e-09
-7.92834e-12
1.574508e-08
-7.832792e-09
-3.387002e-12
1.690594e-08
-9.204829e-09
-2.371807e-12
1.832556e-08
-1.066687e-08
-1.126194e-12
2.001026e-08
-4.092717e-13
-1.222389e-08
2.199219e-08
0.0003915155
0.0002788092
-0.001193419
-0.01011287
-0.0002416427
1.317194e-05
0.0006057093
1.448573e-05
-1.877102e-05
0.0003478227
-1.033451e-05
-0.0006177234
-0.04105083
-0.001005815
0.001430324
0.002095098
-0.0003002205
-0.0004968596
0.001495042
-0.0002306132
0.002183702
-0.000157216
-5.073435e-05
-0.04122701
-0.001379805
0.002231504
0.002293383
-0.0004935805
-0.000486264
-1.816981e-05
-0.04123837
-0.001574705
0.002301072
0.00233652
-0.0004807682
-0.0004717749
2.051611e-05
-0.04106424
-0.001581615
0.002305801
0.002302781
-0.0004654173
-0.0004752055
2.085096e-05
-0.04092161
-0.00158586
0.002298868
0.002303658
-0.0004798854
-0.0004735192
1.588249e-05
-0.0409774
-0.001606515
0.002306041
0.002297223
-0.0004507461
-0.0004554929
1.808498e-05
-0.04087579
-0.0015907
0.002295552
0.00229348
-0.0004636023
-0.000470206
-0.04088832
-0.001596097
0.002294517
0.002291155
-0.0004582234
-0.0004626122
2.020959e-05
0.001916948
0.0002005627
-0.0003877576
-0.008531605
2.041852e-05
0.00244873
0.002006277
0.002427931
0.0001364461
-0.0002244392
-1.351234e-05
0.0002026221
-0.04098909
-0.0008012751
0.01013342
0.01046292
0.009963522
0.01012544
0.000112206
-0.0004582573
9.372031e-05
-0.0004354058
0.0002413122
-0.04137746
-0.0007754319
0.0001416617
-0.04128258
-0.0008538121
8.063194e-05
-0.0411529
-0.0009838552
6.498621e-05
-0.04112884
-0.000948787
9.583104e-05
-0.04098467
-0.0009439291
4.675293e-05
-0.04102126
-0.001053307
7.999124e-05
-0.04095796
-0.0009599543
-0.04097307
-0.000999031
6.763197e-05
-0.0005794176
-0.03602308
-0.000129554
0.0009480817
0.0003404395
-0.001516078
-0.0002469813
0.008132421
0.0104862
0.008311448
0.01027652
7.90031e-05
-0.04164624
1.691028e-05
-9.562444e-05
-0.04151282
-0.0006643348
2.747339e-05
-0.04150254
-0.000849622
3.840937e-05
-0.04117187
-0.000806205
2.441789e-05
-0.04115691
-0.000927807
5.038131e-05
-0.04106363
-0.0009236587
6.421693e-05
-0.04095886
-0.0009053789
9.176775e-05
-0.04097583
-0.0009220021
-0.04093758
-0.0009300602
9.432869e-05
-0.0005007875
-0.03542101
0.0003245356
0.001340185
-1.872726e-05
-0.001493492
-0.0002537857
-0.0001744726
-0.04183394
-0.0001048559
-4.402648e-05
-0.04147672
-0.0001746213
-5.149798e-06
-0.04130332
-0.0002492626
4.742444e-05
-0.0409841
-0.0002828432
6.420876e-05
-0.04086863
-0.0003095707
7.496887e-05
-0.04078383
-0.0003543831
9.006726e-05
-0.04069363
-0.0003290986
0.0001111698
-0.04070262
-0.000359047
-0.04066508
-0.0003299677
0.0001359412
0.0001245369
-0.03555555
-8.603373e-05
0.001475814
0.0001678842
-0.001443358
-0.0001042969
3.379138e-05
-0.04169902
-4.77027e-05
2.861459e-05
-0.04150631
-7.180616e-05
5.786723e-05
-0.0413073
-8.428795e-05
5.510358e-05
-0.04097369
-7.38595e-05
6.884275e-05
-0.04087189
-9.205666e-05
9.885369e-05
-0.04073736
-0.000102252
0.0001059702
-0.04072058
-9.648842e-05
0.0001309616
-0.04066484
-0.0001031322
-0.04065137
-0.0001122613
0.00016069
-6.282545e-05
-0.03551723
0.0001339103
0.001444058
8.21134e-05
-0.001469942
-0.0001656363
8.593423e-05
-0.04186927
9.819933e-05
0.0001121013
-0.04160593
0.0001868559
0.0001317393
-0.04139587
0.0002199877
0.0001166142
-0.04098797
0.0002112724
0.000118627
-0.04094334
0.0002419301
0.0001190295
-0.04075953
0.0002438321
0.0001403021
-0.04087482
0.0002792883
0.0001591998
-0.0407264
0.0002708799
-0.04079584
0.0003085839
0.0001927139
-5.904014e-05
-0.03539301
-6.511162e-05
0.001466546
0.0001220184
-0.001455984
-0.0001326431
-4.738278e-05
-0.04184342
-1.859876e-05
-8.173256e-05
-0.04156283
-1.738915e-05
1.803097e-05
-0.04142969
-5.218697e-05
5.608824e-05
-0.04101267
1.196393e-05
8.756747e-05
-0.04101836
6.26921e-05
5.407038e-05
-0.04084106
0.0001627626
0.000164248
-0.04107496
9.458028e-05
0.0001287872
-0.04085867
0.0002137939
-0.04103058
0.0002060407
0.0002268063
6.856556e-05
-0.03572287
0.0002737873
0.001446253
0.0001386968
-0.001454882
-0.0001425595
0.0004136181
-0.04242167
0.0005020634
0.0004552756
-0.04229288
0.001473252
0.0004412833
-0.04232608
0.001884986
0.0003630651
-0.04194312
0.002233375
0.0002390522
-0.04206704
0.002413751
0.0001271949
-0.04188172
0.002532326
0.0001670676
-0.04236091
0.002373632
0.0001281718
-0.04204975
0.002464644
-0.04238103
0.002486986
0.0002535936
0.0002369776
-0.03592597
-1.506472e-05
0.001461853
8.795585e-05
-0.001425987
-0.0001426336
-7.714148e-05
-0.0417649
0.0002507912
-0.0002498401
-0.04174073
0.00077912
-0.0001263705
-0.04155574
0.0001462719
-0.0001234026
-0.04142083
0.001015697
-0.0001194827
-0.04113386
-8.867455e-06
-0.0001817085
-0.04113366
0.000699102
0.000139654
-0.04200192
-0.0004232962
7.396857e-05
-0.0417394
0.0007805415
-0.04186002
0.0001753941
0.0003338185
0.0007814792
-0.008505282
5.925155e-05
0.001981452
0.0007826548
-0.0007699087
-0.000186717
-0.01048621
-0.008949587
-0.0106331
0.0008781379
-0.01041684
0.001283588
-0.0104484
-0.01011619
-0.01051511
0.001270438
-0.01066857
0.005271241
-0.01088325
-0.01040941
-0.0110434
0.0007175257
-0.01118999
0.008742212
-0.01109432
-0.01061867
-0.01143661
0.0003675528
-0.01131386
0.009434946
-0.01124683
-0.0106105
-0.01159058
0.0002359914
-0.01137081
0.009562766
-0.01132501
-0.01052898
-0.01150105
1.260891e-05
-0.01147367
0.01019325
-0.01142371
-0.01056676
-0.01151314
9.514308e-05
-0.01164402
0.009031597
-0.01139519
-0.01111407
-0.01159929
9.565084e-05
-0.01166022
0.01028973
-0.0115883
-0.01175561
-0.01072281
-0.01158864
0.009829552
-0.01156403
-0.01130268
-0.01135251
0.0003970842
2.962684e-05
0.0003251448
0.0002018252
-0.002615443
-0.001878575
-0.00264975
-0.00191811
-0.0008886631
-0.0005476467
5.300212e-05
-0.009174647
0.0001411208
-0.0007939322
0.0004640179
-0.0002785113
-0.009713953
-0.0003461898
-0.0004932051
8.165077e-05
-7.975888e-05
-0.01008102
-0.0006176617
-0.000602019
-8.161965e-05
1.314909e-05
-0.0101404
-0.0005029683
-0.0005685802
-0.0001368712
-1.256012e-05
-0.01017611
-0.0004766801
-0.0006084988
2.253797e-05
-0.0002272396
-0.0102063
-0.0004541705
-0.000507394
0.0001525246
-0.000210061
-0.01029946
-0.0007796308
-0.0003001957
-2.500312e-05
0.0002826058
-0.01027473
-0.0013429
-0.0003687383
-4.006085e-06
-6.777864e-05
-0.01016292
-0.0009852015
1.139289e-11
-3.938869e-11
7.10646e-11
-7.561902e-12
-1.521694e-11
-2.06072e-11
-5.0983e-09
2.662616e-09
3.392886e-10
9.917134e-11
-8.417708e-12
1.746963e-10
7.817694e-11
5.473008e-10
6.132502e-10
5.438925e-10
6.769717e-10
-1.186921e-10
-1.181041e-10
-4.615121e-11
-3.488003e-10
-7.409479e-09
2.559615e-09
3.318295e-10
3.854662e-11
-1.047953e-10
1.431103e-10
-2.785978e-11
1.75842e-11
-1.841993e-10
-3.012426e-10
-1.63998e-10
-9.878624e-09
3.050835e-09
2.674941e-10
-1.119953e-11
-1.659776e-10
1.37707e-10
-9.428754e-11
-4.327728e-11
-3.319201e-10
-1.467285e-10
-1.959104e-10
-1.268035e-08
3.371897e-09
3.916812e-10
4.176031e-11
-2.142123e-10
1.616921e-10
-1.253371e-10
1.113511e-11
-3.70977e-10
-2.185742e-10
-2.495157e-10
-1.569952e-08
3.761126e-09
5.277741e-10
5.828162e-11
-2.605219e-10
1.543378e-10
-1.506437e-10
-1.711028e-11
-4.651814e-10
-3.137148e-10
-2.773002e-10
-1.905522e-08
4.127186e-09
5.936246e-10
8.813156e-11
-3.186022e-10
2.592514e-10
-1.809722e-10
-8.091872e-12
-5.488172e-10
-3.383439e-10
-3.195192e-10
-2.276222e-08
4.573931e-09
8.211924e-10
1.051508e-10
-3.872018e-10
3.145303e-10
-2.282982e-10
-8.260996e-12
-6.73992e-10
-3.610855e-10
-4.519738e-10
-2.680827e-08
4.948292e-09
7.478854e-10
1.327581e-10
-4.535581e-10
4.443457e-10
-2.502441e-10
7.876442e-11
-7.419687e-10
-3.785221e-10
-4.858393e-10
5.299691e-09
8.228408e-10
1.705746e-10
-5.653728e-10
5.863686e-10
-2.701747e-10
1.028171e-10
-7.898336e-10
-3.828832e-10
-5.874937e-10
-3.119953e-08
-4.867812e-11
-6.907486e-10
-1.179447e-10
8.719968e-10
6.085626e-11
-5.123836e-11
5.960464e-12
-3.131997e-11
-4.585026e-09
5.13763e-09
2.448672e-10
4.063483e-10
5.08751e-10
4.337576e-10
6.669975e-10
-7.224771e-09
5.263237e-09
8.960938e-11
-9.658905e-09
5.397887e-09
2.020378e-10
-1.217494e-08
5.780774e-09
1.993629e-10
-1.502452e-08
6.39106e-09
3.614492e-10
-1.813553e-08
6.948402e-09
4.230617e-10
-2.147873e-08
7.591567e-09
4.340178e-10
-2.503669e-08
8.224721e-09
3.510955e-10
9.09132e-09
3.533394e-10
-2.905582e-08
-7.400393e-11
-1.079223e-09
-1.107211e-10
1.295507e-09
8.456104e-11
-7.181149e-11
7.620121e-12
-5.305784e-11
-4.136101e-09
7.270242e-09
-6.959092e-12
4.040343e-10
5.397522e-10
4.451575e-10
5.936392e-10
-6.380333e-09
7.546099e-09
-8.866847e-11
-8.790272e-09
7.841732e-09
8.002216e-11
-1.12896e-08
8.253259e-09
1.790184e-10
-1.387466e-08
8.894377e-09
2.575854e-10
-1.665206e-08
9.598215e-09
3.216482e-10
-1.968427e-08
1.051856e-08
3.792405e-10
-2.305273e-08
1.152955e-08
4.016436e-10
1.281729e-08
4.503555e-10
-2.683192e-08
-1.211937e-10
-1.57977e-09
1.261738e-11
1.728264e-09
1.561436e-10
-1.255252e-10
1.450711e-11
-8.617286e-11
-3.827303e-09
9.266276e-09
3.152558e-11
3.110947e-10
5.44227e-10
3.144093e-10
5.946453e-10
-5.891169e-09
9.588338e-09
-1.306371e-10
-8.002788e-09
9.93138e-09
2.701006e-11
-1.023386e-08
1.04446e-08
4.09682e-11
-1.260653e-08
1.117963e-08
1.102518e-10
-1.516884e-08
1.207356e-08
1.141076e-10
-1.794248e-08
1.316651e-08
1.463941e-10
-2.099673e-08
1.445998e-08
1.575176e-10
1.60401e-08
1.881477e-10
-2.436685e-08
-1.440563e-10
-1.953876e-09
4.117509e-11
2.098408e-09
1.69778e-10
-1.27914e-10
2.209353e-11
-1.068076e-10
-3.504184e-09
1.106684e-08
-3.348011e-12
2.353731e-10
5.16074e-10
2.820109e-10
5.978011e-10
-5.354095e-09
1.144511e-08
-1.494043e-10
-7.288758e-09
1.188612e-08
-3.476791e-11
-9.312282e-09
1.245924e-08
8.428061e-12
-1.146157e-08
1.32957e-08
5.893734e-11
-1.376107e-08
1.432114e-08
8.317436e-11
-1.625388e-08
1.56008e-08
1.063441e-10
-1.898396e-08
1.712752e-08
1.2156e-10
1.896029e-08
1.406816e-10
-2.197212e-08
-1.694005e-10
-2.331246e-09
6.359512e-11
2.489674e-09
1.808593e-10
-1.279897e-10
2.459845e-13
-1.068994e-10
-3.161379e-09
1.270469e-08
-4.494532e-11
1.470879e-10
5.042345e-10
2.290731e-10
5.557164e-10
-4.811013e-09
1.312907e-08
-1.385575e-10
-6.521767e-09
1.363758e-08
-4.516241e-11
-8.320664e-09
1.427215e-08
-3.462634e-11
-1.023642e-08
1.520654e-08
2.65486e-12
-1.228936e-08
1.635924e-08
1.113399e-11
-1.450129e-08
1.778708e-08
2.363198e-11
-1.690115e-08
1.949713e-08
3.126078e-11
2.153331e-08
4.001372e-11
-1.951161e-08
-1.879251e-10
-2.716689e-09
5.897151e-11
2.79326e-09
2.082917e-10
-9.884813e-11
2.204501e-12
-6.029943e-11
-2.774076e-09
1.4123e-08
-1.230644e-10
8.406817e-11
4.972748e-10
1.485946e-10
5.437705e-10
-4.237826e-09
1.462167e-08
-9.75073e-11
-5.737729e-09
1.516582e-08
-6.867463e-11
-7.316645e-09
1.586942e-08
-3.599441e-11
-8.98472e-09
1.688071e-08
-1.236527e-11
-1.076491e-08
1.81359e-08
2.164637e-12
-1.267179e-08
1.96861e-08
1.179872e-11
-1.47236e-08
2.153757e-08
1.87156e-11
2.373214e-08
2.472403e-11
-1.693631e-08
-2.001735e-10
-2.985394e-09
4.729954e-11
3.054444e-09
2.070251e-10
-8.743473e-11
1.40752e-11
-5.073612e-11
-2.37809e-09
-1.47128e-10
3.557474e-11
4.719876e-10
8.803095e-11
5.094233e-10
1.53257e-08
-3.613204e-09
-7.474254e-11
1.589276e-08
-4.884315e-09
-6.603572e-11
1.646113e-08
-6.220808e-09
-3.296376e-11
1.722861e-08
-7.634165e-09
-1.858734e-11
1.830365e-08
-9.138296e-09
-6.956719e-12
1.964293e-08
-1.073755e-08
-2.66051e-12
2.128477e-08
-1.244417e-08
4.412794e-12
2.323814e-08
5.954654e-12
-1.426065e-08
2.554164e-08
0.0006218652
2.854466e-05
-0.0009242172
-0.01005116
-2.527491e-05
3.447079e-06
0.0006228718
4.094702e-06
-0.0006874107
-0.04041156
-0.0002053999
0.002190219
-0.0002130927
0.002190292
-0.0001984258
2.404677e-05
-0.0404096
-0.0003132657
3.848284e-05
-0.04079905
-0.0003584794
2.46716e-05
-0.04056912
-0.000424764
1.271123e-05
-0.04059747
-0.0004362908
2.028481e-05
-0.04060912
-0.0004384922
1.678766e-05
-0.04051647
-0.0004370099
-0.04048738
-0.0004503399
1.980412e-05
0.002042201
5.851052e-05
-0.0005037518
-0.008494105
-2.541107e-05
0.002450175
0.002033616
0.002438765
-0.0005963384
-0.04015754
-0.0003937754
0.01000957
0.01026879
0.009994639
0.01012556
0.0002499714
-0.0002808349
0.0002390141
-0.0002603357
-0.0001397082
-0.04104992
-0.0005937056
1.62967e-05
-0.04080014
-0.000619269
3.235811e-05
-0.04099502
-0.0008039501
9.129622e-06
-0.04078056
-0.0007141222
3.582948e-05
-0.04078959
-0.0007785063
3.633894e-05
-0.04084159
-0.0008213504
4.908619e-05
-0.04073511
-0.000754066
-0.04072274
-0.0007788771
6.429781e-05
-0.001042385
-0.03625737
-0.0001909808
0.008401482
0.01033804
0.00838804
0.01023362
-0.0002371699
-0.040954
8.157059e-06
-0.0003319823
-0.04117677
-0.0004426666
-8.857105e-05
-0.04123656
-0.000656618
-8.937459e-05
-0.04111757
-0.0006828502
-1.381717e-05
-0.04101765
-0.0007662694
2.083886e-05
-0.04100365
-0.0007442503
2.361479e-05
-0.04098074
-0.0007690048
6.607927e-05
-0.04096392
-0.0007356496
-0.04093735
-0.0007398332
9.046112e-05
-0.0008102387
-0.03524737
0.0001247757
-0.0003548191
-0.04142136
-9.292141e-05
-0.0001709353
-0.04136226
-0.0001730155
-4.294714e-05
-0.04128485
-0.0003289549
-2.424242e-05
-0.04105073
-0.0003683867
4.730237e-06
-0.04093013
-0.0004260628
5.494424e-05
-0.0409709
-0.0004373549
3.530308e-05
-0.04085357
-0.0004366227
0.0001094546
-0.04098715
-0.0004099658
-0.04088391
-0.0004107274
0.0001367794
1.871615e-05
-0.03532895
-2.317264e-05
-4.32823e-05
-0.0413177
-8.936254e-05
-1.843187e-05
-0.04137357
-8.534396e-05
5.360473e-05
-0.04131411
-0.000127062
-2.425992e-05
-0.04088539
-0.0001613305
-2.840743e-05
-0.04086412
-0.0001539246
5.237334e-05
-0.04099888
-0.0001550502
3.735573e-05
-0.04080694
-0.0001280979
0.0001380902
-0.04106466
-0.0001263617
-0.04090322
-0.0001043016
0.000149447
1.101731e-05
-0.0352393
3.325115e-05
9.512381e-05
-0.04134057
3.69679e-05
9.854452e-05
-0.0413382
0.0001480707
9.01719e-05
-0.0412002
0.000114447
6.157678e-05
-0.04080101
0.000155484
6.078869e-05
-0.04080726
0.0001858632
0.0001253017
-0.04104167
0.0002221127
6.793903e-05
-0.04068019
0.0002099037
0.0001687199
-0.04113212
0.0002375623
-0.04085943
0.0002375184
0.0001959942
-6.435492e-05
-0.03508742
-0.0001526419
-0.0001612328
-0.0411091
-0.0001531849
-8.730239e-05
-0.04146382
3.429882e-05
-6.62471e-05
-0.04129232
1.888517e-05
2.370851e-05
-0.04103856
0.0001595603
6.42515e-05
-0.04103959
0.0002544759
0.0001287356
-0.0412547
0.0003113098
9.41083e-05
-0.04066807
0.0001170824
0.00019089
-0.04122448
0.0002093767
-0.04073442
9.418832e-05
0.0001777331
0.0005973098
-0.03551719
0.0001062504
0.001289869
-0.04163136
0.0003317646
0.001111109
-0.04102279
0.001210986
0.0007338998
-0.0407121
0.001681973
0.0005156112
-0.04058241
0.001995518
0.0003972714
-0.04061792
0.002110429
0.0003190515
-0.04079436
0.002150201
0.0001287301
-0.03996235
0.001858231
0.0002460166
-0.04087032
0.001993197
-0.03993965
0.00170906
0.0002291645
0.0008219619
-0.0361555
-0.0001987113
0.000356943
-0.04071821
-0.000197337
-2.455027e-06
-0.04050981
0.0006255438
-0.0005499164
-0.04017056
0.000152193
-0.0004898096
-0.04030618
0.0006793628
-0.000295194
-0.04077784
-4.356786e-05
9.601873e-07
-0.04104709
0.0006556815
3.262058e-05
-0.04012564
-0.0002916607
0.0002896895
-0.04121101
0.000864161
-0.0397605
4.746423e-05
0.0002384707
0.003369887
-0.009126493
0.0004912391
-0.01083863
-0.009166785
-0.01082546
0.00469216
-0.01038108
0.001358446
-0.01064594
-0.01030696
-0.01078136
0.003269676
-0.03726637
0.003450279
0.001579664
-0.03770958
0.00797124
0.001093344
-0.03978375
0.009398833
0.001218888
-0.04139766
0.01005704
0.001214558
-0.04232925
0.01147974
0.0006782188
-0.04091906
0.01036135
0.0009445663
-0.0429616
0.01177397
-0.04073149
0.0115121
0.0002330047
-7.672084e-05
0.0001506661
5.312072e-05
-0.002683854
-0.001930806
-0.002658644
-0.001980255
-0.0003234769
0.0004325363
-0.0007025402
-0.00958838
-0.0001992167
-0.003845454
-0.003432324
0.001893539
0.002065948
-0.0004366203
-0.001078385
0.002314528
-0.000373943
0.001983128
-0.001006124
-0.002363937
-0.006569323
0.002391206
0.002762923
-0.0006919195
-0.0006816782
-0.001645406
-0.008085446
0.002507676
0.002957732
-0.0006017745
-0.0004993023
-0.001237475
-0.009285648
0.00251302
0.002855821
-0.0006314479
-0.0004310532
-0.0008389345
-0.01038708
0.002533239
0.002948679
-0.0006290777
-0.0003600717
-0.0008074461
-0.009859098
0.002736199
0.003714181
-0.0005410198
-0.0001615722
-0.001043587
-0.01074234
0.003326884
0.00245383
-0.0002743717
-0.0006483577
-0.0108056
0.003032458
0.003144034
-0.0001556503
-1.135657e-05
-0.0001371673
7.430398e-12
-3.046111e-11
-1.393871e-11
6.917785e-11
-1.447672e-11
-1.800385e-11
-4.397157e-09
1.903668e-09
-9.797169e-12
5.512926e-10
6.113167e-10
5.696252e-10
5.81723e-10
1.088451e-10
1.303958e-10
9.465771e-11
1.925027e-10
-6.095091e-09
1.862012e-09
1.666183e-10
-8.062069e-09
2.262691e-09
-2.905482e-11
-1.012565e-08
2.460944e-09
-6.927147e-12
-1.250102e-08
2.783689e-09
1.186893e-10
-1.512751e-08
3.041243e-09
1.778377e-10
-1.79092e-08
3.344589e-09
2.57178e-10
-2.091094e-08
3.650437e-09
9.76139e-11
4.074316e-09
1.358357e-10
-2.429948e-08
-1.67983e-09
4.530572e-09
1.081439e-10
-6.82986e-10
-8.472909e-10
-7.278289e-10
-6.395165e-10
-1.022869e-10
-1.363683e-10
1.488963e-10
2.673015e-11
-4.560604e-09
4.88456e-09
1.437364e-10
-7.295356e-09
4.620054e-09
6.538848e-11
-9.838042e-09
4.907675e-09
9.855882e-11
-1.250541e-08
5.235824e-09
9.078921e-11
-1.528661e-08
5.756254e-09
1.68937e-10
-1.831412e-08
6.306047e-09
1.845333e-10
-2.166242e-08
6.903618e-09
2.217474e-10
-2.543713e-08
7.593923e-09
1.803879e-10
8.445676e-09
2.004817e-10
-2.965744e-08
-1.693564e-09
6.189653e-09
-1.617552e-10
-1.730243e-10
-1.291723e-11
2.68639e-10
1.119149e-10
-3.916012e-09
7.129622e-09
-3.075204e-11
-6.553973e-09
7.254132e-09
-8.600139e-11
-9.127427e-09
7.508208e-09
5.158861e-11
-1.178652e-08
7.945097e-09
1.273083e-10
-1.456779e-08
8.585616e-09
2.079296e-10
-1.75384e-08
9.329374e-09
2.673064e-10
-2.075299e-08
1.020058e-08
2.9485e-10
-2.428926e-08
1.122512e-08
3.045289e-10
1.248851e-08
3.509907e-10
-2.823513e-08
-1.668091e-09
7.829534e-09
-1.593482e-11
-2.903477e-10
-6.065457e-11
2.961568e-10
9.71318e-11
-3.707881e-09
9.184045e-09
1.551111e-11
-5.977385e-09
9.437017e-09
-4.549841e-11
-8.294587e-09
9.81755e-09
3.323197e-11
-1.069793e-08
1.030551e-08
8.202264e-11
-1.320653e-08
1.105306e-08
1.496024e-10
-1.588901e-08
1.195244e-08
1.714726e-10
-1.880366e-08
1.305655e-08
2.029893e-10
-2.201078e-08
1.436974e-08
2.175431e-10
1.596021e-08
2.509428e-10
-2.554763e-08
-1.566274e-09
9.311849e-09
-2.998003e-11
-3.179346e-10
-6.377913e-11
3.671418e-10
1.264287e-10
-3.36771e-09
1.101397e-08
-3.317358e-11
-5.361569e-09
1.138312e-08
-1.030402e-10
-7.425162e-09
1.187907e-08
-3.451035e-11
-9.58299e-09
1.245957e-08
1.037734e-11
-1.184667e-08
1.330443e-08