/*--------------------------------*- C++ -*----------------------------------*\
  =========                 |
  \\      /  F ield         | OpenFOAM: The Open Source CFD Toolbox
   \\    /   O peration     | Website:  https://openfoam.org
    \\  /    A nd           | Version:  7
     \\/     M anipulation  |
\*---------------------------------------------------------------------------*/
FoamFile
{
    version     2.0;
    format      ascii;
    class       volScalarField;
    location    "0.09";
    object      epsilon;
}
// * * * * * * * * * * * * * * * * * * * * * * * * * * * * * * * * * * * * * //

dimensions      [0 2 -3 0 0 0 0];

internalField   nonuniform List<scalar> 
109978
(
0.001887445
0.001939907
0.001945029
0.001946085
0.001946615
0.001946606
0.001939789
0.002040493
0.002051098
0.002052894
0.002053426
0.002053144
0.001944922
0.002051107
0.002063138
0.002065227
0.002065737
0.002065252
0.001946017
0.002052981
0.00206533
0.002067518
0.002067997
0.002067401
0.001946713
0.002053859
0.002066283
0.002068487
0.002068942
0.002068281
0.001947322
0.002054552
0.002066997
0.002069183
0.002069607
0.002068907
0.001947914
0.002055201
0.002067665
0.002069827
0.002070215
0.002069475
0.001948502
0.002055861
0.00206832
0.002070455
0.002070814
0.002070037
0.0019491
0.00205653
0.002068979
0.002071093
0.002071424
0.002070617
0.001949702
0.002057211
0.002069637
0.002071741
0.002072048
0.002071213
0.001950313
0.002057901
0.002070312
0.002072401
0.002072688
0.002071828
0.00195093
0.002058597
0.002070991
0.002073072
0.002073341
0.002072459
0.001951552
0.002059302
0.002071677
0.002073755
0.002074007
0.002073106
0.00195218
0.002060014
0.002072378
0.002074444
0.002074685
0.002073768
0.001952813
0.002060737
0.002073087
0.002075156
0.002075374
0.002074442
0.001953449
0.002061466
0.002073811
0.002075858
0.002076076
0.002075129
0.001954091
0.002062203
0.002074549
0.002076568
0.002076785
0.002075826
0.001954737
0.002062946
0.00207529
0.002077289
0.002077513
0.00207653
0.001955391
0.002063687
0.002076029
0.002078007
0.002078227
0.00207723
0.001956042
0.002064407
0.002076739
0.002078692
0.002078888
0.002077894
0.001956654
0.002065024
0.002077311
0.002079218
0.002079388
0.002078404
0.001957072
0.002065264
0.002077412
0.002079237
0.00207939
0.002078471
0.01058484
0.002064888
0.002076809
0.002078517
0.002078701
0.002077957
0.002067945
0.002070934
0.002071427
0.002072037
0.002072696
0.002073272
0.002068258
0.01060217
0.01060223
0.01060232
0.01060241
0.0106025
0.002071062
0.0106023
0.01060235
0.01060244
0.01060253
0.01060262
0.002071562
0.01060243
0.01060248
0.01060257
0.01060266
0.01060274
0.002072182
0.01060256
0.01060261
0.0106027
0.01060278
0.01060287
0.002072861
0.01060269
0.01060274
0.01060283
0.01060291
0.010603
0.002073553
0.01060282
0.01060287
0.01060296
0.01060305
0.01060313
0.002074248
0.01060296
0.01060301
0.01060309
0.01060318
0.01060326
0.002074941
0.01060309
0.01060314
0.01060323
0.01060331
0.0106034
0.002075635
0.01060323
0.01060328
0.01060336
0.01060345
0.01060353
0.002076329
0.01060336
0.01060341
0.0106035
0.01060358
0.01060367
0.002077037
0.0106035
0.01060355
0.01060364
0.01060372
0.01060381
0.002077749
0.01060364
0.01060369
0.01060377
0.01060386
0.01060395
0.002078466
0.01060377
0.01060383
0.01060391
0.010604
0.01060409
0.002079188
0.01060392
0.01060397
0.01060406
0.01060414
0.01060423
0.002079917
0.01060406
0.01060411
0.0106042
0.01060429
0.01060437
0.002080649
0.0106042
0.01060425
0.01060434
0.01060443
0.01060452
0.002081389
0.01060435
0.0106044
0.01060449
0.01060458
0.01060467
0.002082135
0.0106045
0.01060454
0.01060464
0.01060473
0.01060482
0.002082891
0.01060464
0.01060469
0.01060479
0.01060488
0.01060497
0.002083654
0.0106048
0.01060484
0.01060494
0.01060503
0.01060512
0.002084425
0.01060495
0.01060499
0.01060509
0.01060518
0.01060528
0.002085187
0.0106051
0.01060515
0.01060525
0.01060534
0.01060543
0.002085621
0.01060525
0.0106053
0.0106054
0.0106055
0.01060559
0.002064508
0.002070041
0.00207036
0.002070869
0.002071549
0.00207228
0.002064772
0.01060217
0.01060222
0.0106023
0.01060239
0.01060248
0.002070153
0.01060229
0.01060234
0.01060243
0.01060252
0.0106026
0.002070468
0.01060241
0.01060247
0.01060256
0.01060264
0.01060273
0.002070969
0.01060254
0.0106026
0.01060268
0.01060277
0.01060285
0.00207163
0.01060267
0.01060273
0.01060281
0.0106029
0.01060298
0.002072322
0.0106028
0.01060286
0.01060294
0.01060303
0.01060311
0.002073018
0.01060293
0.01060299
0.01060307
0.01060316
0.01060324
0.002073719
0.01060306
0.01060312
0.0106032
0.01060329
0.01060337
0.002074424
0.01060319
0.01060325
0.01060333
0.01060342
0.0106035
0.002075134
0.01060332
0.01060338
0.01060347
0.01060355
0.01060364
0.002075849
0.01060346
0.01060352
0.0106036
0.01060369
0.01060377
0.00207657
0.01060359
0.01060365
0.01060374
0.01060383
0.01060391
0.002077299
0.01060373
0.01060379
0.01060388
0.01060396
0.01060405
0.002078035
0.01060387
0.01060393
0.01060402
0.0106041
0.01060419
0.002078778
0.010604
0.01060407
0.01060416
0.01060424
0.01060433
0.002079529
0.01060415
0.01060421
0.0106043
0.01060439
0.01060448
0.002080287
0.01060429
0.01060435
0.01060444
0.01060453
0.01060462
0.002081051
0.01060443
0.01060449
0.01060459
0.01060468
0.01060477
0.002081826
0.01060458
0.01060464
0.01060473
0.01060483
0.01060492
0.002082611
0.01060473
0.01060479
0.01060488
0.01060498
0.01060507
0.002083412
0.01060488
0.01060494
0.01060504
0.01060513
0.01060522
0.002084243
0.01060503
0.01060509
0.01060519
0.01060528
0.01060538
0.002085086
0.01060518
0.01060524
0.01060534
0.01060544
0.01060553
0.002064051
0.002069423
0.002069667
0.002070123
0.002070801
0.002071594
0.002064302
0.01060217
0.01060222
0.0106023
0.01060239
0.01060248
0.002069538
0.01060229
0.01060234
0.01060243
0.01060252
0.0106026
0.002069773
0.01060241
0.01060247
0.01060256
0.01060264
0.01060273
0.002070218
0.01060254
0.0106026
0.01060268
0.01060277
0.01060285
0.002070855
0.01060267
0.01060273
0.01060281
0.0106029
0.01060298
0.00207154
0.0106028
0.01060286
0.01060294
0.01060303
0.01060311
0.002072238
0.01060293
0.01060299
0.01060307
0.01060316
0.01060324
0.002072942
0.01060306
0.01060312
0.0106032
0.01060329
0.01060337
0.002073649
0.01060319
0.01060325
0.01060333
0.01060342
0.01060351
0.002074356
0.01060332
0.01060338
0.01060347
0.01060355
0.01060364
0.002075067
0.01060346
0.01060352
0.0106036
0.01060369
0.01060377
0.002075792
0.01060359
0.01060365
0.01060374
0.01060383
0.01060391
0.002076521
0.01060373
0.01060379
0.01060388
0.01060396
0.01060405
0.002077257
0.01060386
0.01060393
0.01060402
0.0106041
0.01060419
0.002077999
0.010604
0.01060407
0.01060416
0.01060424
0.01060433
0.002078749
0.01060414
0.01060421
0.0106043
0.01060439
0.01060448
0.002079506
0.01060429
0.01060435
0.01060444
0.01060453
0.01060462
0.002080271
0.01060443
0.0106045
0.01060459
0.01060468
0.01060477
0.002081048
0.01060458
0.01060464
0.01060473
0.01060483
0.01060492
0.002081832
0.01060472
0.01060479
0.01060488
0.01060498
0.01060507
0.002082638
0.01060487
0.01060494
0.01060503
0.01060513
0.01060522
0.002083506
0.01060502
0.01060509
0.01060519
0.01060528
0.01060538
0.002084453
0.01060518
0.01060524
0.01060534
0.01060544
0.01060553
0.00206395
0.002069247
0.002069454
0.002069887
0.002070562
0.002071372
0.002064223
0.01060217
0.01060222
0.0106023
0.01060239
0.01060248
0.002069358
0.01060229
0.01060234
0.01060243
0.01060252
0.0106026
0.00206956
0.01060241
0.01060247
0.01060256
0.01060264
0.01060273
0.002069981
0.01060254
0.0106026
0.01060268
0.01060277
0.01060285
0.002070606
0.01060267
0.01060273
0.01060281
0.0106029
0.01060298
0.002071286
0.0106028
0.01060286
0.01060294
0.01060303
0.01060311
0.002071984
0.01060293
0.01060298
0.01060307
0.01060316
0.01060324
0.002072683
0.01060306
0.01060312
0.0106032
0.01060329
0.01060337
0.002073391
0.01060319
0.01060325
0.01060333
0.01060342
0.01060351
0.002074096
0.01060332
0.01060338
0.01060347
0.01060355
0.01060364
0.002074806
0.01060346
0.01060351
0.0106036
0.01060369
0.01060377
0.002075529
0.01060359
0.01060365
0.01060374
0.01060383
0.01060391
0.002076257
0.01060373
0.01060379
0.01060388
0.01060396
0.01060405
0.002076992
0.01060386
0.01060393
0.01060401
0.0106041
0.01060419
0.002077733
0.010604
0.01060407
0.01060416
0.01060424
0.01060433
0.002078482
0.01060414
0.01060421
0.0106043
0.01060439
0.01060448
0.002079237
0.01060429
0.01060435
0.01060444
0.01060453
0.01060462
0.002080002
0.01060443
0.01060449
0.01060459
0.01060468
0.01060477
0.002080778
0.01060458
0.01060464
0.01060473
0.01060483
0.01060492
0.00208157
0.01060472
0.01060479
0.01060488
0.01060498
0.01060507
0.002082381
0.01060487
0.01060494
0.01060503
0.01060513
0.01060522
0.002083261
0.01060502
0.01060509
0.01060519
0.01060528
0.01060537
0.002084715
0.01060517
0.01060524
0.01060534
0.01060544
0.01060553
0.002063972
0.002069239
0.002069442
0.002069879
0.002070547
0.002071355
0.002064214
0.01060217
0.01060222
0.0106023
0.01060239
0.01060248
0.002069353
0.01060229
0.01060234
0.01060243
0.01060252
0.0106026
0.002069551
0.01060241
0.01060247
0.01060256
0.01060264
0.01060273
0.002069971
0.01060254
0.0106026
0.01060268
0.01060277
0.01060285
0.002070594
0.01060267
0.01060273
0.01060281
0.0106029
0.01060298
0.002071272
0.0106028
0.01060286
0.01060294
0.01060303
0.01060311
0.002071973
0.01060293
0.01060298
0.01060307
0.01060316
0.01060324
0.002072672
0.01060306
0.01060312
0.0106032
0.01060329
0.01060337
0.002073376
0.01060319
0.01060325
0.01060333
0.01060342
0.01060351
0.002074081
0.01060332
0.01060338
0.01060347
0.01060355
0.01060364
0.002074791
0.01060346
0.01060352
0.0106036
0.01060369
0.01060377
0.002075514
0.01060359
0.01060365
0.01060374
0.01060383
0.01060391
0.002076244
0.01060373
0.01060379
0.01060388
0.01060396
0.01060405
0.002076978
0.01060386
0.01060393
0.01060402
0.0106041
0.01060419
0.00207772
0.010604
0.01060407
0.01060416
0.01060425
0.01060433
0.002078469
0.01060414
0.01060421
0.0106043
0.01060439
0.01060448
0.002079224
0.01060429
0.01060435
0.01060444
0.01060453
0.01060462
0.002079989
0.01060443
0.01060449
0.01060459
0.01060468
0.01060477
0.002080764
0.01060458
0.01060464
0.01060473
0.01060483
0.01060492
0.002081548
0.01060472
0.01060479
0.01060488
0.01060498
0.01060507
0.002082364
0.01060487
0.01060494
0.01060503
0.01060513
0.01060522
0.002083248
0.01060502
0.01060509
0.01060519
0.01060528
0.01060538
0.002084731
0.01060517
0.01060524
0.01060534
0.01060544
0.01060553
0.002063978
0.002069321
0.002069547
0.002069995
0.002070676
0.002071472
0.00206425
0.01060217
0.01060222
0.0106023
0.01060239
0.01060248
0.002069431
0.01060229
0.01060234
0.01060243
0.01060252
0.0106026
0.002069659
0.01060241
0.01060247
0.01060256
0.01060264
0.01060273
0.002070093
0.01060254
0.0106026
0.01060268
0.01060277
0.01060285
0.002070726
0.01060267
0.01060273
0.01060281
0.0106029
0.01060298
0.002071408
0.0106028
0.01060286
0.01060294
0.01060303
0.01060311
0.002072106
0.01060293
0.01060299
0.01060307
0.01060316
0.01060324
0.002072807
0.01060306
0.01060312
0.0106032
0.01060329
0.01060337
0.002073515
0.01060319
0.01060325
0.01060334
0.01060342
0.01060351
0.002074222
0.01060332
0.01060338
0.01060347
0.01060356
0.01060364
0.002074934
0.01060346
0.01060352
0.0106036
0.01060369
0.01060377
0.002075659
0.01060359
0.01060365
0.01060374
0.01060383
0.01060391
0.002076388
0.01060373
0.01060379
0.01060388
0.01060396
0.01060405
0.002077124
0.01060386
0.01060393
0.01060402
0.0106041
0.01060419
0.002077865
0.010604
0.01060407
0.01060416
0.01060425
0.01060433
0.002078613
0.01060414
0.01060421
0.0106043
0.01060439
0.01060448
0.002079367
0.01060429
0.01060435
0.01060444
0.01060453
0.01060462
0.00208013
0.01060443
0.0106045
0.01060459
0.01060468
0.01060477
0.002080908
0.01060458
0.01060464
0.01060474
0.01060483
0.01060492
0.002081692
0.01060472
0.01060479
0.01060489
0.01060498
0.01060507
0.002082509
0.01060487
0.01060494
0.01060504
0.01060513
0.01060522
0.002083379
0.01060502
0.01060509
0.01060519
0.01060529
0.01060538
0.002084822
0.01060516
0.01060523
0.01060535
0.01060544
0.01060553
0.002064255
0.002069832
0.002070154
0.002070641
0.002071329
0.002072096
0.002064511
0.01060217
0.01060222
0.0106023
0.01060239
0.01060248
0.002069943
0.01060229
0.01060234
0.01060243
0.01060252
0.0106026
0.002070259
0.01060241
0.01060247
0.01060256
0.01060264
0.01060273
0.002070743
0.01060254
0.0106026
0.01060268
0.01060277
0.01060285
0.002071398
0.01060267
0.01060273
0.01060281
0.0106029
0.01060298
0.002072092
0.0106028
0.01060286
0.01060294
0.01060303
0.01060311
0.002072793
0.01060293
0.01060299
0.01060307
0.01060316
0.01060324
0.002073495
0.01060306
0.01060312
0.0106032
0.01060329
0.01060337
0.002074204
0.01060319
0.01060325
0.01060334
0.01060342
0.01060351
0.002074913
0.01060332
0.01060338
0.01060347
0.01060355
0.01060364
0.002075629
0.01060346
0.01060352
0.0106036
0.01060369
0.01060377
0.002076354
0.01060359
0.01060365
0.01060374
0.01060383
0.01060391
0.002077084
0.01060373
0.01060379
0.01060388
0.01060396
0.01060405
0.002077821
0.01060387
0.01060393
0.01060402
0.0106041
0.01060419
0.002078564
0.01060401
0.01060407
0.01060416
0.01060425
0.01060433
0.002079314
0.01060415
0.01060421
0.0106043
0.01060439
0.01060448
0.002080072
0.01060429
0.01060435
0.01060444
0.01060453
0.01060462
0.002080834
0.01060443
0.0106045
0.01060459
0.01060468
0.01060477
0.002081607
0.01060458
0.01060464
0.01060474
0.01060483
0.01060492
0.002082394
0.01060473
0.01060479
0.01060489
0.01060498
0.01060507
0.002083202
0.01060488
0.01060494
0.01060504
0.01060513
0.01060522
0.002084055
0.01060503
0.01060509
0.01060519
0.01060529
0.01060538
0.002085462
0.01060517
0.01060523
0.01060533
0.01060543
0.01060554
0.002063228
0.002067048
0.002067371
0.002067935
0.002068609
0.00206926
0.002063459
0.01060217
0.01060223
0.01060232
0.01060241
0.0106025
0.002067156
0.0106023
0.01060235
0.01060244
0.01060253
0.01060262
0.002067472
0.01060243
0.01060248
0.01060256
0.01060265
0.01060274
0.002068034
0.01060256
0.01060261
0.0106027
0.01060278
0.01060287
0.002068705
0.01060269
0.01060274
0.01060283
0.01060291
0.010603
0.002069389
0.01060282
0.01060287
0.01060296
0.01060304
0.01060313
0.002070076
0.01060295
0.01060301
0.01060309
0.01060318
0.01060326
0.002070769
0.01060309
0.01060314
0.01060323
0.01060331
0.0106034
0.002071469
0.01060322
0.01060327
0.01060336
0.01060345
0.01060353
0.002072174
0.01060336
0.01060341
0.0106035
0.01060358
0.01060367
0.002072885
0.0106035
0.01060355
0.01060363
0.01060372
0.01060381
0.002073601
0.01060363
0.01060368
0.01060377
0.01060386
0.01060394
0.002074321
0.01060377
0.01060382
0.01060391
0.010604
0.01060409
0.002075047
0.01060391
0.01060396
0.01060405
0.01060414
0.01060423
0.002075778
0.01060406
0.01060411
0.0106042
0.01060428
0.01060437
0.002076518
0.0106042
0.01060425
0.01060434
0.01060443
0.01060452
0.002077264
0.01060435
0.0106044
0.01060449
0.01060458
0.01060467
0.002078019
0.01060449
0.01060454
0.01060464
0.01060473
0.01060482
0.002078774
0.01060464
0.01060469
0.01060479
0.01060488
0.01060497
0.002079539
0.01060479
0.01060484
0.01060494
0.01060503
0.01060512
0.00208032
0.01060495
0.01060499
0.01060509
0.01060518
0.01060528
0.00208111
0.0106051
0.01060515
0.01060524
0.01060534
0.01060543
0.002082292
0.01060525
0.01060529
0.01060539
0.01060548
0.01060557
0.005609151
0.00568617
0.00569469
0.00570221
0.005709575
0.005716813
0.005609598
0.01059559
0.0105956
0.01059506
0.01059466
0.01059421
0.0105937
0.005686739
0.01059601
0.01059648
0.01059585
0.01059565
0.0105955
0.0105954
0.005695415
0.01059625
0.01059675
0.01059692
0.01059663
0.01059649
0.01059638
0.005703063
0.0105965
0.010597
0.01059722
0.01059739
0.01059715
0.01059705
0.005710631
0.01059675
0.01059725
0.01059747
0.0105977
0.01059788
0.01059768
0.005718228
0.010597
0.01059751
0.01059772
0.01059795
0.01059819
0.01059838
0.005725781
0.01059725
0.01059776
0.01059798
0.01059821
0.01059845
0.0105987
0.005733297
0.0105975
0.01059802
0.01059823
0.01059847
0.0105987
0.01059895
0.005740774
0.01059775
0.01059828
0.01059849
0.01059872
0.01059896
0.01059921
0.00574822
0.010598
0.01059854
0.01059875
0.01059898
0.01059922
0.01059948
0.005755739
0.01059825
0.0105988
0.01059901
0.01059924
0.01059948
0.01059974
0.00576335
0.0105985
0.01059906
0.01059927
0.0105995
0.01059974
0.0106
0.005770985
0.01059875
0.01059932
0.01059953
0.01059976
0.0106
0.01060027
0.005778669
0.01059901
0.01059959
0.0105998
0.01060002
0.01060026
0.01060053
0.005786484
0.01059926
0.01059985
0.01060006
0.01060029
0.01060053
0.0106008
0.005794445
0.01059951
0.01060012
0.01060033
0.01060056
0.01060079
0.01060107
0.005802426
0.01059977
0.01060039
0.0106006
0.01060083
0.01060106
0.01060135
0.005810418
0.01060002
0.01060066
0.01060087
0.01060111
0.01060133
0.01060162
0.005818423
0.01060028
0.01060093
0.01060114
0.01060138
0.01060161
0.0106019
0.005826463
0.01060053
0.01060121
0.01060142
0.01060166
0.01060189
0.01060218
0.005834645
0.01060079
0.01060148
0.0106017
0.01060194
0.01060217
0.01060246
0.005842966
0.01060109
0.0106018
0.01060202
0.01060227
0.0106025
0.01060279
0.005850881
0.01058481
0.01059047
0.01059074
0.0105909
0.0105904
0.01059042
0.003987602
0.00628028
0.006281506
0.01060224
0.003963136
0.004114639
0.005609072
0.005684525
0.01060229
0.01060242
0.004117822
0.004125149
0.005686112
0.005693428
0.01060247
0.01060262
0.004124365
0.004128882
0.005694587
0.005700853
0.01060264
0.01060282
0.004127929
0.004132277
0.005702053
0.005708122
0.01060282
0.01060302
0.004131295
0.004135394
0.005709391
0.00571524
0.01060301
0.01060321
0.004134263
0.005716578
0.01060319
0.00396295
0.004114443
0.00560958
0.01060236
0.005684319
0.01060253
0.004117693
0.004124969
0.005686715
0.01060262
0.005693187
0.0106028
0.004124265
0.004128767
0.005695357
0.01060287
0.005700502
0.01060308
0.004127866
0.004132271
0.005703035
0.01060314
0.005707816
0.01060335
0.004131338
0.004135784
0.005710602
0.0106034
0.005715206
0.01060363
0.004134818
0.004139322
0.005718201
0.01060367
0.005722713
0.01060391
0.00413832
0.004142894
0.00572574
0.01060394
0.005730221
0.01060419
0.004141873
0.004146451
0.005733271
0.01060421
0.005737746
0.01060447
0.004145351
0.004149957
0.005740732
0.01060448
0.005745345
0.01060475
0.004148807
0.004153497
0.005748187
0.01060476
0.00575292
0.01060504
0.004152258
0.004157072
0.005755694
0.01060505
0.005760612
0.01060533
0.004155734
0.004160685
0.005763307
0.01060533
0.005768359
0.01060562
0.004159217
0.00416431
0.005770927
0.01060562
0.005776168
0.01060591
0.004162741
0.004167985
0.005778619
0.0106059
0.005784039
0.0106062
0.004166293
0.004171702
0.005786403
0.01060619
0.005792003
0.0106065
0.00416988
0.004175449
0.005794369
0.01060649
0.005800033
0.0106068
0.004173491
0.004179232
0.005802322
0.01060678
0.005808151
0.01060711
0.004177142
0.004183046
0.005810338
0.01060708
0.00581634
0.01060741
0.004180829
0.004186895
0.005818337
0.01060739
0.005824612
0.01060772
0.004184555
0.004190771
0.005826442
0.01060769
0.005832938
0.01060804
0.004188299
0.004194627
0.005834594
0.010608
0.005841375
0.01060835
0.004191994
0.004198078
0.005842894
0.01060831
0.005849745
0.01060867
0.004195038
0.01057819
0.005850872
0.01060863
0.005855949
0.01060896
0.005599603
0.005600947
0.01060218
0.005659817
0.005661044
0.01060218
0.005660102
0.005661294
0.01060217
0.005660908
0.00566169
0.01060217
0.005660702
0.005661677
0.01060217
0.005660779
0.005661544
0.01060217
0.005660511
0.005661629
0.01060217
0.00566084
0.00566144
0.01060217
0.005660789
0.005661467
0.01060217
0.005660837
0.005661474
0.01060217
0.005660651
0.005661618
0.01060217
0.005660422
0.005661846
0.01060217
0.005660691
0.005661785
0.01060217
0.005660467
0.005661012
0.01060217
0.005660177
0.005660667
0.01060218
0.005599687
0.005600993
0.01060218
0.006280503
0.006281363
0.01060223
0.003987609
0.005684485
0.01060222
0.01060242
0.003963145
0.004114692
0.005693388
0.0106024
0.01060262
0.004117866
0.004125189
0.005708108
0.01060307
0.01060302
0.00412803
0.004132308
0.005715244
0.01060295
0.01060321
0.004131308
0.004135395
0.01060313
0.004134259
0.01060236
0.00568424
0.01060253
0.003962954
0.004114452
0.01060261
0.005693061
0.0106028
0.004117722
0.004124963
0.01060314
0.005707614
0.01060335
0.004127922
0.004132255
0.01060367
0.005722436
0.01060391
0.004134854
0.004139329
0.01060393
0.005729915
0.01060419
0.004138341
0.004142903
0.0106042
0.005737446
0.01060447
0.004141882
0.004146463
0.01060448
0.005745003
0.01060475
0.004145368
0.004149969
0.01060476
0.005752582
0.01060504
0.004148818
0.004153507
0.01060504
0.005760256
0.01060532
0.004152277
0.004157078
0.01060532
0.005767976
0.01060561
0.004155746
0.004160695
0.01060561
0.00577574
0.01060591
0.004159243
0.004164322
0.0106059
0.005783594
0.0106062
0.004162769
0.004168015
0.01060619
0.005791548
0.0106065
0.004166332
0.004171729
0.01060679
0.005807696
0.0106071
0.004173545
0.004179247
0.01060708
0.005815891
0.01060741
0.004177175
0.004183057
0.01060738
0.005824107
0.01060772
0.00418087
0.004186928
0.01060769
0.005832455
0.01060803
0.004184609
0.004190769
0.01060831
0.005849247
0.01060867
0.004192017
0.004198076
0.01060863
0.005855967
0.01060899
0.004195034
0.01057057
0.01059205
0.007953087
0.0105966
0.008079155
0.01059727
0.008098743
0.01059678
0.00811195
0.01059773
0.008119116
0.01059691
0.008129906
0.01059794
0.008135391
0.01059697
0.008146901
0.01059813
0.008151249
0.01059704
0.008163533
0.01059835
0.008167077
0.01059712
0.008179951
0.01059856
0.008183002
0.0105972
0.008196196
0.01059885
0.008198978
0.01059727
0.008212453
0.01059924
0.008215083
0.01059738
0.008228813
0.01059967
0.008231258
0.01059751
0.008245286
0.01060009
0.008247555
0.01059769
0.008261662
0.01060041
0.008263968
0.01059789
0.008278028
0.01060076
0.008280506
0.01059813
0.00829442
0.01060109
0.008297176
0.01059837
0.008310924
0.01060144
0.008313985
0.01059865
0.008327452
0.01060176
0.008330966
0.01059893
0.008344077
0.0106021
0.008348086
0.01059925
0.008360752
0.01060241
0.008365372
0.01059957
0.008377572
0.01060277
0.00838281
0.01059992
0.008394463
0.0106031
0.008400442
0.01060029
0.008411477
0.01060348
0.008418212
0.0106007
0.008428554
0.01060383
0.008436141
0.01060111
0.008445736
0.01060421
0.008454204
0.01060156
0.008462857
0.01060459
0.008471817
0.01059199
0.010592
0.01059196
0.01059198
0.01059197
0.01059194
0.01059199
0.01059195
0.01059201
0.01059194
0.010592
0.01059195
0.01059199
0.01059194
0.01059201
0.01059194
0.01059214
0.01059197
0.00570083
0.01060258
0.01060281
0.004124391
0.004128868
0.01060286
0.005700317
0.01060277
0.004124248
0.004128699
0.01060339
0.005714973
0.01060317
0.00413133
0.004135667
0.01060646
0.005799572
0.01060549
0.004169924
0.00417524
0.01060796
0.005840915
0.01060664
0.004188324
0.004194375
0.01059707
0.008072437
0.0105964
0.007815181
0.0105921
0.01059196
0.01059779
0.008111519
0.01059617
0.00809954
0.01059814
0.008128759
0.01059603
0.008118929
0.01059851
0.00814519
0.01059584
0.008135928
0.01059889
0.008161576
0.01059568
0.008152328
0.01059927
0.008177813
0.01059556
0.008168429
0.01059966
0.008193996
0.01059545
0.008184659
0.01060003
0.008210291
0.01059536
0.008200765
0.01060039
0.008226659
0.0105953
0.008216821
0.01060077
0.008243261
0.01059525
0.008232792
0.01060115
0.008259921
0.01059523
0.008248835
0.01060154
0.008276682
0.01059524
0.008264918
0.01060194
0.00829357
0.01059526
0.008281032
0.01060234
0.008310622
0.01059531
0.008297179
0.01060275
0.008327792
0.01059537
0.008313454
0.01060317
0.008345132
0.01059546
0.008329811
0.0106036
0.008362614
0.01059557
0.008346293
0.01060403
0.008380292
0.01059569
0.008362863
0.01060446
0.008398119
0.01059585
0.008379583
0.0106049
0.008416112
0.01059601
0.008396403
0.01060535
0.008434249
0.01059621
0.008413374
0.0106058
0.008452546
0.01059642
0.00843042
0.01060626
0.00847086
0.01059666
0.008447607
0.01060688
0.01058688
0.008463918
0.01060067
0.01059199
0.01059193
0.01059194
0.01059192
0.01059195
0.01059191
0.01059194
0.01059192
0.01059197
0.01059188
0.01059196
0.01059191
0.01059194
0.01059191
0.01059195
0.01059195
0.01059201
0.007953143
0.01059845
0.008074003
0.01059853
0.00781558
0.01060025
0.008146197
0.01059836
0.008152808
0.01059805
0.008163786
0.01060007
0.00815075
0.0105966
0.008078466
0.01059727
0.008098709
0.01059779
0.008111948
0.01059651
0.008099497
0.01059678
0.008111996
0.0105977
0.008119119
0.01059814
0.00812937
0.01059651
0.008118927
0.01059893
0.008162397
0.01059648
0.00815246
0.01059712
0.008179976
0.01059857
0.008183029
0.01059967
0.008195028
0.01059654
0.008184685
0.0105972
0.008196129
0.01059883
0.008198987
0.01060005
0.00821141
0.0105966
0.008200771
0.01059728
0.008212357
0.0105992
0.008215103
0.01060042
0.008227893
0.01059669
0.008216823
0.01059738
0.008228737
0.01059964
0.008231265
0.0106008
0.008244578
0.01059679
0.008232801
0.01059751
0.008245188
0.01060005
0.008247568
0.01060119
0.008261326
0.01059692
0.008248834
0.01059769
0.008261601
0.01060039
0.008264059
0.0105979
0.008278117
0.01060076
0.008280534
0.01060199
0.008295121
0.01059726
0.00828105
0.01059813
0.008294377
0.01060107
0.008297188
0.0106024
0.008312215
0.01059745
0.008297205
0.01060416
0.008382081
0.01059846
0.008362995
0.01059958
0.008377515
0.01060273
0.008382854
0.01060458
0.00839995
0.01059877
0.008379626
0.01060112
0.008445835
0.01060421
0.008454282
0.01060643
0.008472659
0.0106002
0.008447711
0.01060156
0.008462823
0.01060457
0.008471717
0.01060691
0.008488205
0.008463971
0.01060076
0.00585621
0.01060299
0.005856203
0.01060894
0.01060894
0.0105308
0.01061336
0.0106083
0.008476212
0.01060842
0.006426072
0.006504482
0.007315161
0.007349969
0.007311382
0.007352572
0.00732683
0.00736221
0.007324947
0.007363767
0.007337871
0.007373959
0.007336538
0.007375088
0.007348822
0.007385509
0.00734798
0.007386319
0.007359767
0.007397142
0.007359395
0.007397559
0.007370733
0.007408815
0.007370819
0.007408822
0.007381762
0.00742044
0.007382244
0.007420117
0.007392871
0.007432084
0.007393734
0.007431488
0.007404077
0.007443827
0.007405388
0.007442911
0.007415364
0.007455643
0.007417076
0.007454431
0.007426727
0.007467524
0.007428841
0.007466021
0.007438181
0.007479477
0.007440676
0.007477703
0.007449734
0.007491522
0.007452576
0.007489483
0.007461394
0.007503646
0.007464556
0.007501366
0.007473164
0.007515891
0.007476623
0.007513361
0.007485043
0.007528221
0.007488789
0.007525479
0.007497051
0.007540694
0.007501068
0.00753773
0.007509179
0.00755325
0.007513454
0.007550105
0.007521449
0.007565966
0.007525961
0.007562614
0.00753384
0.007578777
0.007538572
0.007575258
0.007546391
0.007591767
0.007551322
0.007588067
0.007559082
0.007604841
0.007564186
0.007601016
0.007571879
0.007618073
0.00757717
0.007614098
0.006734373
0.006744677
0.006732877
0.006741081
0.006711292
0.006711461
0.006730133
0.006714206
0.006722482
0.006731481
0.006714464
0.006708497
0.006720139
0.006732459
0.006715266
0.006715082
0.006733421
0.006718685
0.007299071
0.007347877
0.007307704
0.007342012
0.006750507
0.00674886
0.007322652
0.007360978
0.007324055
0.007359075
0.007333763
0.007372491
0.007335668
0.007370354
0.007344802
0.007383957
0.007347241
0.007381646
0.007355906
0.007395462
0.007358877
0.007392901
0.007367062
0.007407013
0.007370519
0.007404239
0.007378246
0.007418618
0.007382163
0.007415613
0.007389515
0.007430273
0.007393839
0.007427025
0.007400927
0.007442025
0.007405614
0.007438531
0.007412382
0.007453857
0.007417432
0.007450097
0.007423949
0.007465799
0.007429324
0.00746177
0.007435608
0.007477828
0.007441308
0.007473536
0.007447363
0.007489972
0.007453379
0.007485406
0.00745921
0.007502189
0.007465536
0.007497373
0.007471192
0.007514548
0.007477809
0.007509492
0.007483285
0.007527001
0.007490178
0.007521713
0.007495532
0.007539607
0.007502687
0.007534101
0.007507895
0.0075523
0.007515295
0.007546601
0.007520421
0.007565159
0.007528049
0.007559279
0.007533062
0.007578121
0.007540908
0.007572082
0.007545888
0.007591278
0.007553932
0.007585073
0.00755883
0.007604537
0.007567057
0.007598185
0.007571952
0.007617954
0.007580332
0.007611478
0.00759255
0.007632177
0.007582311
0.007624616
0.006732724
0.006740905
0.006719215
0.006717036
0.006712999
0.006708285
0.00673179
0.006737509
0.006725762
0.006712932
0.006745784
0.00674247
0.006727023
0.006726524
0.006727826
0.006716942
0.006421248
0.006504296
0.01059707
0.008071749
0.0105964
0.007814424
0.01059888
0.008079306
0.01059848
0.008099278
0.01059856
0.008112724
0.01059894
0.008098627
0.01059941
0.008110733
0.01059819
0.00811993
0.01059839
0.008130303
0.01059935
0.008117592
0.007348635
0.007385254
0.007348407
0.0073857
0.007354882
0.007395308
0.007357966
0.007392637
0.01060064
0.008161642
0.01059752
0.008167492
0.01059793
0.008179988
0.01060042
0.008165841
0.01060106
0.008177851
0.01059738
0.00731582
0.007350766
0.007353098
0.007312531
0.007322655
0.007361275
0.007324357
0.007359101
0.007326836
0.007362138
0.00736377
0.007324889
0.007333813
0.007372819
0.007336076
0.007370338
0.01059628
0.008146254
0.01059812
0.008150585
0.0073783
0.007419324
0.007382907
0.00741562
0.007381791
0.007420345
0.007420097
0.007382188
0.007389582
0.007431068
0.007394668
0.007427043
0.007400984
0.007442873
0.007406505
0.007438545
0.007404105
0.007443729
0.007442886
0.007405337
0.007426779
0.007467496
0.007466002
0.007428857
0.01060156
0.00827712
0.01059522
0.008265355
0.007438242
0.007479421
0.007477682
0.007440717
0.007447447
0.007491053
0.007454504
0.007485464
0.01059835
0.008310835
0.01060141
0.008313269
0.01060282
0.008328723
0.01059763
0.00831272
0.01059861
0.008326644
0.01060174
0.008330258
0.01060326
0.008346102
0.01059795
0.008329117
0.01059662
0.00836007
0.01060235
0.008363677
0.01059988
0.008394442
0.01060308
0.008399714
0.01060503
0.008417184
0.01059904
0.0083957
0.01060025
0.008410666
0.01060345
0.008417489
0.0106055
0.008435342
0.01059953
0.008412643
0.007631587
0.007591888
0.007580857
0.007623542
0.006786521
0.007226549
0.007123529
0.007024871
0.006590834
0.006700327
0.007316432
0.007355054
0.007317755
0.007353322
0.00732781
0.007366553
0.007329337
0.007364552
0.007338869
0.007377979
0.007340736
0.007375835
0.007349894
0.007389414
0.007352068
0.007387058
0.007360984
0.007400877
0.007363508
0.007398286
0.0073721
0.007412406
0.007374994
0.007409579
0.007383258
0.00742397
0.007386471
0.0074209
0.007394494
0.007435607
0.007398022