/*--------------------------------*- C++ -*----------------------------------*\
  =========                 |
  \\      /  F ield         | OpenFOAM: The Open Source CFD Toolbox
   \\    /   O peration     | Website:  https://openfoam.org
    \\  /    A nd           | Version:  7
     \\/     M anipulation  |
\*---------------------------------------------------------------------------*/
FoamFile
{
    version     2.0;
    format      ascii;
    class       volScalarField;
    location    "0.09";
    object      k;
}
// * * * * * * * * * * * * * * * * * * * * * * * * * * * * * * * * * * * * * //

dimensions      [0 2 -2 0 0 0 0];

internalField   nonuniform List<scalar> 
109978
(
0.0036992
0.0036987
0.003699288
0.003700009
0.00370077
0.003701524
0.003698541
0.003696657
0.003697043
0.003697721
0.003698464
0.003699227
0.003699137
0.003697033
0.003697294
0.00369788
0.003698565
0.003699306
0.003699869
0.00369771
0.003697877
0.003698392
0.00369901
0.003699697
0.00370064
0.003698451
0.003698558
0.003699003
0.003699569
0.003700199
0.003701396
0.003699203
0.003699282
0.003699672
0.00370018
0.003700769
0.003702152
0.003699971
0.003700041
0.003700383
0.003700842
0.003701385
0.00370291
0.003700768
0.00370082
0.003701124
0.003701542
0.00370204
0.003703682
0.003701584
0.003701615
0.003701889
0.003702271
0.003702733
0.003704462
0.003702417
0.003702414
0.003702674
0.003703026
0.003703454
0.003705253
0.003703263
0.003703236
0.003703476
0.003703801
0.003704201
0.003706052
0.003704117
0.003704063
0.003704293
0.003704595
0.00370497
0.003706858
0.003704981
0.0037049
0.003705124
0.003705406
0.003705758
0.003707671
0.003705855
0.003705754
0.003705964
0.003706233
0.003706564
0.003708491
0.003706742
0.00370662
0.003706832
0.003707073
0.003707387
0.003709314
0.003707637
0.003707503
0.003707689
0.003707929
0.003708226
0.003710145
0.003708543
0.003708406
0.003708558
0.0037088
0.00370908
0.003710984
0.003709458
0.003709318
0.003709446
0.003709698
0.003709949
0.003711834
0.003710381
0.003710241
0.003710349
0.003710598
0.003710832
0.003712695
0.003711311
0.003711177
0.003711267
0.003711494
0.003711732
0.003713566
0.003712255
0.003712132
0.003712201
0.003712405
0.003712651
0.00371445
0.003713216
0.003713107
0.003713155
0.003713342
0.003713613
0.003443454
0.0037142
0.003714107
0.003714133
0.003714308
0.003714578
0.003693915
0.003694919
0.003695748
0.003696569
0.003697391
0.003698216
0.00369428
0.003441455
0.003441463
0.003441478
0.003441494
0.003441509
0.003695084
0.003441476
0.003441483
0.003441498
0.003441514
0.003441529
0.003695918
0.003441498
0.003441505
0.00344152
0.003441535
0.00344155
0.003696749
0.00344152
0.003441527
0.003441542
0.003441557
0.003441572
0.003697587
0.003441543
0.00344155
0.003441564
0.003441579
0.003441593
0.003698431
0.003441566
0.003441572
0.003441587
0.003441601
0.003441616
0.003699276
0.003441588
0.003441595
0.003441609
0.003441624
0.003441638
0.00370012
0.003441611
0.003441617
0.003441632
0.003441647
0.003441661
0.003700965
0.003441634
0.00344164
0.003441655
0.00344167
0.003441684
0.003701809
0.003441657
0.003441663
0.003441678
0.003441693
0.003441707
0.003702668
0.003441681
0.003441687
0.003441702
0.003441716
0.003441731
0.003703534
0.003441704
0.00344171
0.003441725
0.00344174
0.003441755
0.003704405
0.003441728
0.003441734
0.003441749
0.003441764
0.003441779
0.003705283
0.003441752
0.003441758
0.003441773
0.003441788
0.003441803
0.003706169
0.003441777
0.003441782
0.003441798
0.003441813
0.003441827
0.003707059
0.003441802
0.003441807
0.003441822
0.003441837
0.003441852
0.003707957
0.003441827
0.003441831
0.003441847
0.003441862
0.003441877
0.003708863
0.003441852
0.003441856
0.003441873
0.003441888
0.003441903
0.003709781
0.003441878
0.003441882
0.003441898
0.003441913
0.003441929
0.003710707
0.003441904
0.003441907
0.003441924
0.003441939
0.003441955
0.003711646
0.00344193
0.003441933
0.00344195
0.003441966
0.003441981
0.003712593
0.003441957
0.00344196
0.003441977
0.003441992
0.003442008
0.003713838
0.003441981
0.003441986
0.003442003
0.003442019
0.003442035
0.003694132
0.003695103
0.003695967
0.003696823
0.003697674
0.003698522
0.00369449
0.003441454
0.003441461
0.003441475
0.00344149
0.003441505
0.003695253
0.003441474
0.003441481
0.003441496
0.003441511
0.003441526
0.003696107
0.003441495
0.003441503
0.003441518
0.003441532
0.003441547
0.003696962
0.003441517
0.003441525
0.003441539
0.003441554
0.003441568
0.003697816
0.003441539
0.003441547
0.003441561
0.003441575
0.00344159
0.003698671
0.003441561
0.003441569
0.003441583
0.003441597
0.003441612
0.003699526
0.003441583
0.003441591
0.003441605
0.00344162
0.003441634
0.003700381
0.003441605
0.003441613
0.003441628
0.003441642
0.003441656
0.00370124
0.003441628
0.003441635
0.00344165
0.003441664
0.003441679
0.003702104
0.00344165
0.003441658
0.003441673
0.003441687
0.003441702
0.003702974
0.003441673
0.003441681
0.003441696
0.00344171
0.003441725
0.003703851
0.003441696
0.003441704
0.003441719
0.003441733
0.003441748
0.003704738
0.003441719
0.003441727
0.003441742
0.003441757
0.003441771
0.003705633
0.003441743
0.003441751
0.003441766
0.003441781
0.003441795
0.003706536
0.003441767
0.003441775
0.00344179
0.003441805
0.003441819
0.003707449
0.003441791
0.003441799
0.003441814
0.003441829
0.003441844
0.003708369
0.003441815
0.003441823
0.003441838
0.003441854
0.003441869
0.003709298
0.00344184
0.003441847
0.003441863
0.003441879
0.003441894
0.003710238
0.003441865
0.003441872
0.003441888
0.003441904
0.003441919
0.003711187
0.00344189
0.003441898
0.003441914
0.003441929
0.003441945
0.003712145
0.003441916
0.003441923
0.003441939
0.003441955
0.003441971
0.003713113
0.003441942
0.003441949
0.003441965
0.003441981
0.003441997
0.003714093
0.003441968
0.003441975
0.003441992
0.003442008
0.003442024
0.003694141
0.003695121
0.003695988
0.003696848
0.003697693
0.003698542
0.003694497
0.003441454
0.003441461
0.003441475
0.00344149
0.003441504
0.003695274
0.003441474
0.003441482
0.003441496
0.003441511
0.003441526
0.003696128
0.003441494
0.003441503
0.003441518
0.003441532
0.003441547
0.003696987
0.003441516
0.003441525
0.003441539
0.003441554
0.003441568
0.003697841
0.003441538
0.003441547
0.003441561
0.003441576
0.00344159
0.003698703
0.00344156
0.003441569
0.003441583
0.003441598
0.003441612
0.003699561
0.003441583
0.003441591
0.003441605
0.00344162
0.003441634
0.003700422
0.003441605
0.003441613
0.003441628
0.003441642
0.003441656
0.003701284
0.003441627
0.003441635
0.00344165
0.003441665
0.003441679
0.003702146
0.00344165
0.003441658
0.003441673
0.003441687
0.003441702
0.003703012
0.003441673
0.003441681
0.003441696
0.00344171
0.003441725
0.003703893
0.003441696
0.003441704
0.003441719
0.003441734
0.003441748
0.00370478
0.003441719
0.003441727
0.003441742
0.003441757
0.003441771
0.003705675
0.003441742
0.003441751
0.003441766
0.003441781
0.003441795
0.003706578
0.003441766
0.003441775
0.00344179
0.003441805
0.003441819
0.00370749
0.00344179
0.003441799
0.003441814
0.003441829
0.003441844
0.00370841
0.003441815
0.003441823
0.003441838
0.003441854
0.003441869
0.00370934
0.003441839
0.003441848
0.003441863
0.003441879
0.003441894
0.00371028
0.003441864
0.003441872
0.003441888
0.003441904
0.003441919
0.003711226
0.003441889
0.003441898
0.003441914
0.003441929
0.003441945
0.003712175
0.003441915
0.003441923
0.003441939
0.003441955
0.003441971
0.003713143
0.003441941
0.003441949
0.003441965
0.003441981
0.003441997
0.003714125
0.003441967
0.003441975
0.003441991
0.003442008
0.003442024
0.003694147
0.003695125
0.003695997
0.003696851
0.003697696
0.003698543
0.003694498
0.003441454
0.003441461
0.003441474
0.00344149
0.003441504
0.003695275
0.003441474
0.003441482
0.003441496
0.003441511
0.003441526
0.00369614
0.003441494
0.003441503
0.003441518
0.003441532
0.003441547
0.003696994
0.003441516
0.003441525
0.003441539
0.003441554
0.003441568
0.003697847
0.003441538
0.003441547
0.003441561
0.003441576
0.00344159
0.003698709
0.00344156
0.003441569
0.003441583
0.003441598
0.003441612
0.003699566
0.003441583
0.003441591
0.003441605
0.00344162
0.003441634
0.003700427
0.003441605
0.003441613
0.003441627
0.003441642
0.003441656
0.003701289
0.003441627
0.003441635
0.00344165
0.003441665
0.003441679
0.00370215
0.00344165
0.003441658
0.003441673
0.003441687
0.003441702
0.003703013
0.003441673
0.003441681
0.003441695
0.00344171
0.003441725
0.003703894
0.003441696
0.003441704
0.003441719
0.003441733
0.003441748
0.00370478
0.003441719
0.003441727
0.003441742
0.003441757
0.003441771
0.003705674
0.003441742
0.003441751
0.003441766
0.003441781
0.003441795
0.003706575
0.003441766
0.003441774
0.00344179
0.003441805
0.003441819
0.003707486
0.00344179
0.003441798
0.003441814
0.003441829
0.003441844
0.003708404
0.003441814
0.003441823
0.003441838
0.003441854
0.003441869
0.003709332
0.003441839
0.003441847
0.003441863
0.003441879
0.003441894
0.003710271
0.003441864
0.003441872
0.003441888
0.003441904
0.003441919
0.003711224
0.003441889
0.003441897
0.003441913
0.003441929
0.003441945
0.003712176
0.003441915
0.003441923
0.003441939
0.003441955
0.003441971
0.00371314
0.00344194
0.003441949
0.003441965
0.003441981
0.003441997
0.003714616
0.003441966
0.003441975
0.003441991
0.003442008
0.003442024
0.003694147
0.003695126
0.003695996
0.003696852
0.003697692
0.003698533
0.003694503
0.003441454
0.003441461
0.003441474
0.00344149
0.003441504
0.003695281
0.003441474
0.003441482
0.003441496
0.003441511
0.003441526
0.003696143
0.003441494
0.003441503
0.003441518
0.003441532
0.003441547
0.003696998
0.003441516
0.003441525
0.003441539
0.003441554
0.003441568
0.003697848
0.003441538
0.003441547
0.003441561
0.003441576
0.00344159
0.003698707
0.00344156
0.003441569
0.003441583
0.003441598
0.003441612
0.003699566
0.003441583
0.003441591
0.003441605
0.00344162
0.003441634
0.003700426
0.003441605
0.003441613
0.003441627
0.003441642
0.003441656
0.003701288
0.003441627
0.003441635
0.00344165
0.003441665
0.003441679
0.003702146
0.00344165
0.003441658
0.003441673
0.003441687
0.003441702
0.003703011
0.003441673
0.003441681
0.003441696
0.00344171
0.003441725
0.003703891
0.003441696
0.003441704
0.003441719
0.003441734
0.003441748
0.003704778
0.003441719
0.003441727
0.003441742
0.003441757
0.003441772
0.003705672
0.003441742
0.003441751
0.003441766
0.003441781
0.003441795
0.003706575
0.003441766
0.003441774
0.00344179
0.003441805
0.00344182
0.003707485
0.00344179
0.003441799
0.003441814
0.003441829
0.003441844
0.003708403
0.003441814
0.003441823
0.003441838
0.003441854
0.003441869
0.00370933
0.003441839
0.003441848
0.003441863
0.003441879
0.003441894
0.003710268
0.003441864
0.003441872
0.003441888
0.003441904
0.003441919
0.003711213
0.003441889
0.003441898
0.003441914
0.00344193
0.003441945
0.003712169
0.003441915
0.003441923
0.003441939
0.003441955
0.003441971
0.003713136
0.00344194
0.003441949
0.003441965
0.003441982
0.003441998
0.003714626
0.003441966
0.003441975
0.003441992
0.003442008
0.003442024
0.003694148
0.003695127
0.003695994
0.00369685
0.003697694
0.003698531
0.003694502
0.003441454
0.003441461
0.003441475
0.00344149
0.003441504
0.003695279
0.003441474
0.003441482
0.003441496
0.003441511
0.003441526
0.003696141
0.003441494
0.003441503
0.003441518
0.003441532
0.003441547
0.003696996
0.003441516
0.003441525
0.003441539
0.003441554
0.003441568
0.003697844
0.003441538
0.003441547
0.003441561
0.003441576
0.00344159
0.003698704
0.00344156
0.003441569
0.003441583
0.003441598
0.003441612
0.003699563
0.003441583
0.003441591
0.003441605
0.00344162
0.003441634
0.003700425
0.003441605
0.003441613
0.003441628
0.003441642
0.003441656
0.003701288
0.003441627
0.003441636
0.00344165
0.003441665
0.003441679
0.003702148
0.00344165
0.003441658
0.003441673
0.003441687
0.003441702
0.003703014
0.003441673
0.003441681
0.003441696
0.00344171
0.003441725
0.003703894
0.003441696
0.003441704
0.003441719
0.003441734
0.003441748
0.003704782
0.003441719
0.003441727
0.003441742
0.003441757
0.003441772
0.003705676
0.003441742
0.003441751
0.003441766
0.003441781
0.003441795
0.003706579
0.003441766
0.003441775
0.00344179
0.003441805
0.00344182
0.003707489
0.00344179
0.003441799
0.003441814
0.003441829
0.003441844
0.003708408
0.003441815
0.003441823
0.003441839
0.003441854
0.003441869
0.003709335
0.003441839
0.003441848
0.003441863
0.003441879
0.003441894
0.003710273
0.003441864
0.003441873
0.003441888
0.003441904
0.003441919
0.00371122
0.003441889
0.003441898
0.003441914
0.00344193
0.003441945
0.003712179
0.003441915
0.003441923
0.00344194
0.003441956
0.003441971
0.003713146
0.003441941
0.00344195
0.003441966
0.003441982
0.003441998
0.003714618
0.003441964
0.003441973
0.003441993
0.003442008
0.003442024
0.003694136
0.003695105
0.003695969
0.00369683
0.003697683
0.003698528
0.003694489
0.003441454
0.003441461
0.003441475
0.00344149
0.003441505
0.003695254
0.003441474
0.003441481
0.003441496
0.003441511
0.003441526
0.003696108
0.003441495
0.003441503
0.003441518
0.003441532
0.003441547
0.003696969
0.003441517
0.003441525
0.003441539
0.003441554
0.003441568
0.003697826
0.003441539
0.003441547
0.003441561
0.003441575
0.00344159
0.003698689
0.003441561
0.003441569
0.003441583
0.003441598
0.003441612
0.003699549
0.003441583
0.003441591
0.003441605
0.00344162
0.003441634
0.003700409
0.003441606
0.003441613
0.003441628
0.003441642
0.003441656
0.003701269
0.003441628
0.003441636
0.00344165
0.003441665
0.003441679
0.003702134
0.00344165
0.003441658
0.003441673
0.003441687
0.003441702
0.003703004
0.003441673
0.003441681
0.003441696
0.00344171
0.003441725
0.003703886
0.003441696
0.003441704
0.003441719
0.003441733
0.003441748
0.003704775
0.003441719
0.003441727
0.003441742
0.003441757
0.003441771
0.003705671
0.003441743
0.003441751
0.003441766
0.003441781
0.003441795
0.003706575
0.003441767
0.003441775
0.00344179
0.003441805
0.003441819
0.003707487
0.003441791
0.003441799
0.003441814
0.003441829
0.003441844
0.003708407
0.003441815
0.003441823
0.003441839
0.003441854
0.003441869
0.003709333
0.00344184
0.003441848
0.003441863
0.003441879
0.003441894
0.003710272
0.003441865
0.003441873
0.003441889
0.003441904
0.003441919
0.003711223
0.00344189
0.003441898
0.003441914
0.00344193
0.003441945
0.003712183
0.003441916
0.003441923
0.00344194
0.003441956
0.003441972
0.003713157
0.003441942
0.00344195
0.003441966
0.003441983
0.003441998
0.0037147
0.003441966
0.003441973
0.00344199
0.003442006
0.003442026
0.003694171
0.00369518
0.003696033
0.003696879
0.003697722
0.003698555
0.003694529
0.003441454
0.003441463
0.003441478
0.003441493
0.003441508
0.00369532
0.003441476
0.003441482
0.003441498
0.003441513
0.003441528
0.003696163
0.003441498
0.003441505
0.003441519
0.003441535
0.00344155
0.003697006
0.00344152
0.003441527
0.003441542
0.003441556
0.003441571
0.003697851
0.003441542
0.003441549
0.003441564
0.003441578
0.003441593
0.003698691
0.003441565
0.003441572
0.003441586
0.003441601
0.003441615
0.00369953
0.003441588
0.003441594
0.003441609
0.003441623
0.003441638
0.003700376
0.003441611
0.003441617
0.003441632
0.003441646
0.003441661
0.003701228
0.003441634
0.00344164
0.003441655
0.003441669
0.003441684
0.003702087
0.003441657
0.003441663
0.003441678
0.003441692
0.003441707
0.003702953
0.00344168
0.003441686
0.003441701
0.003441716
0.00344173
0.003703825
0.003441704
0.00344171
0.003441725
0.00344174
0.003441754
0.003704702
0.003441728
0.003441734
0.003441749
0.003441763
0.003441778
0.003705587
0.003441752
0.003441758
0.003441773
0.003441788
0.003441802
0.003706478
0.003441777
0.003441782
0.003441797
0.003441812
0.003441827
0.003707379
0.003441801
0.003441806
0.003441822
0.003441837
0.003441852
0.003708287
0.003441826
0.003441831
0.003441847
0.003441862
0.003441877
0.003709204
0.003441852
0.003441856
0.003441872
0.003441887
0.003441903
0.003710125
0.003441877
0.003441881
0.003441898
0.003441913
0.003441928
0.003711057
0.003441903
0.003441907
0.003441924
0.003441939
0.003441955
0.003712
0.00344193
0.003441933
0.00344195
0.003441965
0.003441981
0.003712957
0.003441956
0.003441959
0.003441976
0.003441992
0.003442008
0.003714622
0.003441981
0.003441983
0.003442
0.003442016
0.003442032
0.003596809
0.00359863
0.00360188
0.003605124
0.003608305
0.003611478
0.003596986
0.003441773
0.003441826
0.003441896
0.00344196
0.003442027
0.003442096
0.003598871
0.003441812
0.003441848
0.003441922
0.003441981
0.003442038
0.003442094
0.003602189
0.003441857
0.003441894
0.003441937
0.003442
0.003442056
0.003442112
0.003605501
0.003441902
0.003441939
0.003441982
0.003442026
0.003442086
0.003442141
0.003608763
0.003441947
0.003441984
0.003442027
0.003442069
0.003442112
0.003442171
0.003612035
0.003441993
0.00344203
0.003442072
0.003442115
0.003442156
0.003442199
0.003615282
0.003442039
0.003442076
0.003442118
0.00344216
0.003442202
0.003442244
0.003618516
0.003442085
0.003442122
0.003442164
0.003442207
0.003442248
0.003442291
0.003621731
0.003442131
0.003442169
0.003442211
0.003442253
0.003442295
0.003442338
0.003624931
0.003442178
0.003442216
0.003442258
0.0034423
0.003442342
0.003442386
0.003628161
0.003442226
0.003442264
0.003442305
0.003442348
0.003442389
0.003442434
0.003631428
0.003442273
0.003442312
0.003442353
0.003442395
0.003442437
0.003442482
0.003634708
0.003442321
0.003442361
0.003442402
0.003442443
0.003442485
0.003442532
0.003638008
0.00344237
0.003442411
0.003442451
0.003442493
0.003442534
0.003442581
0.00364137
0.003442419
0.00344246
0.003442501
0.003442542
0.003442584
0.003442631
0.003644785
0.003442469
0.003442511
0.003442552
0.003442593
0.003442634
0.003442682
0.003648198
0.003442519
0.003442562
0.003442603
0.003442644
0.003442685
0.003442734
0.003651616
0.00344257
0.003442613
0.003442654
0.003442697
0.003442737
0.003442786
0.003655041
0.003442621
0.003442666
0.003442707
0.00344275
0.003442789
0.003442839
0.003658488
0.003442673
0.003442719
0.003442759
0.003442803
0.003442843
0.003442893
0.003661987
0.003442726
0.003442772
0.003442813
0.003442857
0.003442898
0.003442948
0.003665538
0.003442786
0.003442834
0.003442874
0.003442919
0.00344296
0.003443011
0.003669109
0.003443454
0.003443315
0.003443356
0.003443406
0.003443483
0.003443541
0.003642489
0.003577879
0.003578077
0.003441471
0.003643127
0.003641252
0.003596785
0.003598242
0.003441481
0.003441503
0.003640712
0.003643097
0.003598589
0.003601326
0.003441511
0.003441537
0.003642507
0.003645092
0.003601824
0.003604548
0.003441541
0.003441571
0.003644496
0.003647113
0.003605053
0.003607684
0.003441572
0.003441605
0.003646529
0.003649149
0.003608219
0.003610783
0.003441604
0.003441638
0.003648586
0.003611379
0.003441635
0.003643011
0.003641128
0.003596974
0.003441493
0.003598154
0.003441521
0.003640631
0.003642984
0.003598861
0.003441536
0.00360122
0.003441569
0.003642444
0.003645014
0.003602165
0.00344158
0.003604392
0.003441616
0.00364445
0.003647079
0.003605484
0.003441624
0.003607546
0.003441663
0.00364651
0.003649183
0.003608747
0.00344167
0.003610729
0.003441711
0.003648595
0.003651309
0.003612021
0.003441716
0.003613962
0.003441759
0.003650699
0.003653456
0.003615266
0.003441761
0.003617195
0.003441807
0.003652835
0.003655593
0.003618507
0.003441807
0.003620435
0.003441856
0.003654925
0.0036577
0.003621716
0.003441855
0.003623703
0.003441905
0.003657001
0.003659827
0.00362492
0.003441903
0.003626959
0.003441954
0.003659074
0.003661974
0.003628145
0.003441951
0.003630264
0.003442004
0.003661161
0.003664143
0.003631413
0.003442
0.003633591
0.003442055
0.003663252
0.003666319
0.003634684
0.003442049
0.003636944
0.003442105
0.003665367
0.003668524
0.003637983
0.003442099
0.003640322
0.003442156
0.003667498
0.003670754
0.003641322
0.003442149
0.003643738
0.003442208
0.00366965
0.003673001
0.003644738
0.003442199
0.00364718
0.00344226
0.003671816
0.003675268
0.003648146
0.003442251
0.003650659
0.003442313
0.003674005
0.003677555
0.003651578
0.003442302
0.003654167
0.003442367
0.003676216
0.003679862
0.003655001
0.003442355
0.003657703
0.003442421
0.003678452
0.003682191
0.003658466
0.003442407
0.003661265
0.003442475
0.003680707
0.003684548
0.003661953
0.003442461
0.003664881
0.00344253
0.003682993
0.003686933
0.00366551
0.003442515
0.003668548
0.003442586
0.003685332
0.003445583
0.003669106
0.003442569
0.003672266
0.003442635
0.003596616
0.003597102
0.003441466
0.003595095
0.003595582
0.003441466
0.003595078
0.00359556
0.003441464
0.003595063
0.003595556
0.003441464
0.003595049
0.003595535
0.003441464
0.003595049
0.003595556
0.003441463
0.00359504
0.003595529
0.003441464
0.003595045
0.003595551
0.003441463
0.003595035
0.003595536
0.003441464
0.003595048
0.003595549
0.003441464
0.003595047
0.003595542
0.003441463
0.003595068
0.003595548
0.003441464
0.003595059
0.003595542
0.003441464
0.003595076
0.003595581
0.003441464
0.003595074
0.00359558
0.003441466
0.003596623
0.003597121
0.003441466
0.003577854
0.003578055
0.003441469
0.003642489
0.003598237
0.003441468
0.003441503
0.003643137
0.003641252
0.003601318
0.003441499
0.003441537
0.003640714
0.003643098
0.00360768
0.003441614
0.003441606
0.003644548
0.003647113
0.00361078
0.003441593
0.003441638
0.003646532
0.003649149
0.003441625
0.00364859
0.003441491
0.00359812
0.003441521
0.003643014
0.003641127
0.003441534
0.003601165
0.003441569
0.003640633
0.003642982
0.003441625
0.003607459
0.003441663
0.00364446
0.003647077
0.003441716
0.003613846
0.003441759
0.003648606
0.003651304
0.00344176
0.003617065
0.003441807
0.003650704
0.003653453
0.003441806
0.003620305
0.003441856
0.003652832
0.003655593
0.003441853
0.003623555
0.003441905
0.003654928
0.003657701
0.003441901
0.003626813
0.003441954
0.003657
0.003659826
0.003441949
0.003630104
0.003442004
0.003659078
0.003661976
0.003441998
0.003633427
0.003442054
0.003661163
0.003664142
0.003442048
0.003636762
0.003442105
0.00366326
0.003666319
0.003442097
0.003640141
0.003442156
0.003665374
0.003668527
0.003442147
0.003643553
0.003442208
0.003667506
0.003670755
0.003442251
0.003650466
0.003442313
0.003671835
0.00367527
0.003442301
0.003653976
0.003442366
0.003674017
0.003677552
0.003442353
0.003657501
0.00344242
0.00367623
0.003679864
0.003442406
0.003661072
0.003442475
0.003678464
0.003682194
0.003442515
0.003668338
0.003442586
0.003683014
0.003686928
0.003442569
0.003672268
0.003442641
0.003685332
0.003446084
0.003441936
0.003528987
0.0034419
0.00352778
0.003441793
0.003529846
0.003442012
0.003532451
0.003441862
0.003534473
0.003442127
0.003537636
0.003441942
0.003539248
0.003442248
0.003542657
0.003442023
0.003543936
0.003442371
0.003547583
0.003442104
0.003548623
0.003442495
0.003552444
0.003442187
0.003553337
0.003442622
0.003557249
0.003442271
0.003558064
0.003442753
0.003562055
0.003442354
0.003562825
0.003442884
0.003566888
0.003442437
0.003567605
0.003443018
0.003571751
0.003442521
0.003572416
0.003443154
0.003576581
0.003442611
0.003577259
0.003443292
0.003581405
0.0034427
0.003582135
0.003443434
0.003586233
0.003442792
0.003587047
0.003443573
0.003591091
0.003442885
0.003591997
0.003443713
0.003595953
0.00344298
0.003596993
0.003443853
0.003600839
0.003443075
0.003602028
0.003443997
0.003605736
0.003443173
0.003607107
0.00344414
0.003610673
0.00344327
0.003612227
0.003444286
0.003615628
0.00344337
0.003617401
0.003444433
0.003620615
0.003443471
0.003622612
0.003444584
0.003625617
0.003443574
0.003627866
0.003444736
0.003630651
0.003443677
0.003633166
0.003444892
0.003635714
0.003443782
0.003638523
0.003441933
0.003441926
0.003441936
0.003441928
0.003441936
0.003441929
0.003441936
0.003441929
0.003441935
0.00344193
0.003441935
0.00344193
0.003441935
0.00344193
0.003441934
0.00344193
0.003441925
0.003441921
0.003604545
0.00344153
0.00344157
0.003642509
0.003645087
0.003441578
0.003604325
0.003441564
0.003642447
0.003644961
0.003441668
0.003610634
0.003441633
0.003646514
0.003649113
0.003442194
0.00364699
0.003442038
0.003669661
0.00367286
0.003442452
0.003664683
0.003442239
0.00368072
0.003684388
0.003441772
0.003528267
0.003441804
0.003532953
0.003441919
0.003441914
0.003441874
0.003532374
0.003441912
0.003529633
0.00344198
0.003537296
0.003442012
0.003534405
0.003442087
0.00354215
0.003442115
0.003539407
0.003442194
0.003546998
0.003442221
0.003544258
0.003442301
0.003551806
0.003442327
0.003549025
0.00344241
0.003556594
0.003442433
0.003553829
0.003442517
0.003561412
0.003442539
0.003558592
0.003442626
0.003566249
0.003442647
0.003563337
0.003442737
0.003571152
0.003442758
0.003568054
0.003442848
0.003576069
0.003442869
0.003572788
0.003442961
0.003581012
0.003442981
0.003577531
0.003443075
0.003585989
0.003443094
0.00358228
0.003443191
0.003591011
0.003443208
0.003587036
0.003443307
0.003596064
0.003443322
0.003591825
0.003443424
0.003601164
0.003443437
0.003596636
0.003443543
0.003606301
0.003443553
0.00360148
0.003443663
0.003611493
0.00344367
0.003606347
0.003443784
0.003616724
0.003443788
0.003611255
0.003443907
0.003622001
0.003443907
0.003616189
0.00344403
0.003627315
0.003444027
0.003621164
0.003444156
0.003632676
0.003444147
0.003626159
0.003444282
0.003638074
0.003444268
0.003631204
0.003444442
0.003450167
0.003636291
0.003445029
0.003441927
0.003441923
0.003441929
0.003441923
0.003441929
0.003441923
0.003441929
0.003441923
0.003441929
0.003441924
0.00344193
0.003441923
0.00344193
0.003441922
0.003441926
0.00344192
0.00344193
0.003528986
0.003441717
0.003528703
0.003441754
0.003533107
0.003442134
0.003542435
0.00344214
0.003544401
0.003442087
0.003547657
0.003442091
0.003543777
0.0034419
0.003527803
0.003441793
0.003529849
0.003441874
0.003532491
0.003441969
0.003529636
0.003442012
0.003532422
0.003441856
0.00353447
0.003441981
0.003537455
0.003442095
0.003534412
0.003442202
0.003547234
0.003442356
0.003544288
0.003442495
0.003552443
0.003442187
0.003553338
0.003442412
0.003556892
0.003442619
0.003553829
0.003442622
0.003557221
0.003442265
0.003558059
0.00344252
0.003561736
0.00344275
0.003558585
0.003442753
0.003562019
0.003442348
0.003562823
0.00344263
0.003566607
0.003442883
0.00356333
0.003442884
0.003566859
0.003442431
0.0035676
0.003442742
0.003571535
0.003443019
0.003568049
0.003443018
0.003571716
0.003442516
0.003572413
0.003442855
0.003576476
0.003443157
0.003572781
0.003443154
0.003576556
0.003442604
0.003577256
0.003443293
0.003581401
0.003442701
0.003582137
0.003443084
0.003586439
0.003443433
0.003582277
0.003443433
0.003586212
0.003442786
0.003587043
0.003443201
0.003591473
0.003443571
0.003587036
0.003443686
0.003612011
0.003444138
0.003606379
0.00344414
0.003610649
0.003443265
0.003612233
0.003443803
0.003617255
0.003444282
0.00361126
0.003444736
0.003630667
0.003443677
0.003633169
0.003444311
0.003638613
0.003444867
0.003631211
0.003444891
0.003635699
0.003443776
0.00363852
0.003444442
0.003644062
0.003636293
0.003445046
0.003672717
0.00344449
0.00367272
0.003442624
0.003442624
0.003446907
0.003449859
0.003444447
0.003640819
0.003444467
0.003571261
0.00356896
0.003549384
0.003548153
0.00354905
0.003548583
0.003553008
0.003552098
0.003552884
0.003552289
0.003556656
0.003555946
0.003556713
0.003555999
0.003560273
0.003559738
0.003560493
0.003559687
0.003563887
0.003563558
0.003564262
0.003563378
0.003567505
0.00356739
0.003568032
0.003567075
0.003571142
0.003571203
0.0035718
0.003570781
0.003574805
0.003575021
0.003575588
0.003574509
0.003578497
0.00357887
0.003579428
0.003578253
0.003582214
0.00358274
0.003583277
0.003582027
0.003585955
0.00358663
0.003587149
0.003585822
0.003589724
0.003590541
0.003591042
0.003589645
0.003593524
0.003594479
0.003594954
0.003593498
0.003597356
0.003598442
0.003598891
0.003597383
0.003601223
0.003602442
0.003602853
0.003601303
0.003605124
0.003606468
0.003606847
0.00360526
0.003609066
0.003610538
0.003610875
0.00360926
0.003613045
0.003614634
0.003614936
0.003613297
0.003617068
0.003618778
0.003619035
0.003617376
0.003621129
0.003622952
0.003623165
0.003621497
0.00362524
0.003627182
0.003627339
0.00362567
0.003629395
0.003631437
0.003631548
0.003629886
0.003633605
0.003635746
0.003635807
0.003634151
0.003562455
0.003562151
0.003562493
0.003562264
0.003563081
0.00356312
0.003562554
0.003563033
0.003562772
0.00356254
0.003563033
0.003563181
0.003562886
0.003562465
0.003563026
0.003562976
0.00356248
0.003562894
0.003548309
0.003547904
0.003548807
0.00354724
0.003561993
0.003561989
0.003551635
0.003551693
0.00355259
0.003550755
0.003555298
0.003555464
0.003556428
0.003554446
0.003558946
0.003559229
0.003560252
0.003558153
0.003562614
0.003563008
0.003564096
0.00356185
0.003566296
0.0035668
0.003567939
0.003565573
0.003569987
0.003570608
0.00357178
0.003569306
0.003573703
0.003574431
0.00357563
0.003573049
0.003577466
0.003578283
0.003579511
0.003576822
0.00358124
0.00358216
0.003583403
0.003580612
0.00358505
0.00358607
0.003587318
0.003584436
0.003588888
0.003590007
0.003591261
0.003588288
0.003592756
0.003593979
0.003595231
0.003592172
0.003596652
0.003597974
0.003599227
0.003596086
0.003600591
0.003602012
0.003603258
0.003600048
0.003604564
0.003606079
0.003607319
0.003604041
0.003608586
0.003610194
0.003611424
0.003608086
0.003612644
0.003614335
0.003615558
0.003612166
0.003616753
0.003618527
0.003619738
0.003616301
0.003620897
0.003622751
0.00362395
0.003620475
0.0036251
0.003627035
0.003628214
0.003624708
0.003629338
0.003631351
0.003632508
0.003628978
0.003633637
0.003635717
0.003636856
0.003633305
0.003641781
0.003640615
0.003637619
0.003637755
0.003562518
0.003562213
0.003562932
0.003562862
0.003563081
0.003563136
0.003562538
0.003562304
0.003562708
0.003563019
0.003562092
0.003562201
0.003562633
0.00356267
0.003562633
0.003562923
0.0035714
0.003568966
0.003441772
0.003528288
0.003441804
0.003532975
0.003441829
0.003527779
0.003441754
0.003530274
0.003441807
0.003532984
0.003441842
0.003529629
0.003441927
0.003532327
0.003441845
0.00353497
0.003441899
0.003537992
0.003441923
0.003534265
0.003560204
0.003559663
0.003560639
0.003559491
0.003562261
0.003562964
0.003563792
0.003561769
0.003442237
0.003547011
0.003442123
0.003548983
0.00344218
0.003552329
0.003442176
0.00354841
0.003442342
0.003551686
0.003442215
0.003549365
0.00354813
0.003548568
0.003549018
0.003551637
0.003551787
0.003552685
0.003550757
0.00355301
0.003552072
0.003552289
0.00355286
0.003555298