/*--------------------------------*- C++ -*----------------------------------*\
  =========                 |
  \\      /  F ield         | OpenFOAM: The Open Source CFD Toolbox
   \\    /   O peration     | Website:  https://openfoam.org
    \\  /    A nd           | Version:  7
     \\/     M anipulation  |
\*---------------------------------------------------------------------------*/
FoamFile
{
    version     2.0;
    format      ascii;
    class       volScalarField;
    location    "0.09";
    object      nut;
}
// * * * * * * * * * * * * * * * * * * * * * * * * * * * * * * * * * * * * * //

dimensions      [0 2 -1 0 0 0 0];

internalField   nonuniform List<scalar> 
109978
(
0.0006525049
0.0006346876
0.0006332174
0.0006331206
0.0006332084
0.0006334692
0.0006346715
0.0006027338
0.0005997428
0.0005994379
0.0005995236
0.0005998535
0.0006332003
0.0005997372
0.0005963238
0.0005959094
0.0005959833
0.000596362
0.0006330946
0.0005994091
0.0005958789
0.0005954139
0.0005954749
0.0005958679
0.000633132
0.0005993929
0.0005958231
0.0005953319
0.000595383
0.0005957763
0.0006331926
0.0005994345
0.0005958508
0.0005953468
0.0005953885
0.0005957795
0.0006332588
0.0005994941
0.0005959027
0.0005953903
0.0005954265
0.0005958142
0.0006333269
0.0005995597
0.0005959649
0.0005954481
0.0005954793
0.0005958633
0.000633397
0.0005996291
0.0005960311
0.0005955109
0.0005955387
0.0005959195
0.0006334678
0.0005997005
0.000596099
0.0005955771
0.000595602
0.00059598
0.0006335399
0.0005997734
0.0005961692
0.0005956453
0.0005956674
0.0005960435
0.0006336127
0.000599847
0.00059624
0.0005957152
0.0005957353
0.0005961092
0.0006336861
0.0005999216
0.0005963118
0.0005957864
0.0005958048
0.0005961767
0.0006337603
0.0005999971
0.0005963851
0.0005958585
0.0005958757
0.0005962459
0.0006338349
0.0006000737
0.0005964596
0.0005959331
0.0005959479
0.0005963167
0.00063391
0.0006001512
0.0005965357
0.000596007
0.0005960218
0.0005963891
0.0006339859
0.0006002298
0.000596614
0.0005960825
0.000596098
0.0005964635
0.0006340628
0.00060031
0.0005966941
0.0005961611
0.0005961778
0.0005965408
0.0006341414
0.0006003931
0.0005967787
0.0005962453
0.0005962623
0.0005966238
0.0006342242
0.0006004848
0.0005968758
0.0005963441
0.0005963604
0.0005967224
0.0006343235
0.0006006108
0.0005970185
0.000596493
0.0005965102
0.0005968714
0.00063449
0.0006008519
0.0005973032
0.0005967943
0.0005968104
0.0005971616
0.0001008201
0.0006012796
0.0005977985
0.0005973153
0.0005973189
0.0005976197
0.0005938508
0.0005933161
0.0005934411
0.0005935299
0.0005936052
0.0005937051
0.0005938785
0.0001005384
0.0001005383
0.0001005383
0.0001005384
0.0001005384
0.0005933325
0.0001005384
0.0001005383
0.0001005384
0.0001005384
0.0001005384
0.0005934569
0.0001005385
0.0001005384
0.0001005384
0.0001005385
0.0001005385
0.0005935464
0.0001005385
0.0001005384
0.0001005385
0.0001005385
0.0001005385
0.0005936209
0.0001005386
0.0001005385
0.0001005385
0.0001005386
0.0001005386
0.0005936939
0.0001005387
0.0001005386
0.0001005386
0.0001005386
0.0001005387
0.0005937662
0.0001005387
0.0001005386
0.0001005387
0.0001005387
0.0001005387
0.0005938386
0.0001005388
0.0001005387
0.0001005387
0.0001005388
0.0001005388
0.0005939111
0.0001005389
0.0001005387
0.0001005388
0.0001005388
0.0001005388
0.0005939833
0.0001005389
0.0001005388
0.0001005388
0.0001005389
0.0001005389
0.0005940568
0.000100539
0.0001005389
0.0001005389
0.0001005389
0.000100539
0.0005941308
0.0001005391
0.0001005389
0.000100539
0.000100539
0.000100539
0.0005942054
0.0001005391
0.000100539
0.000100539
0.0001005391
0.0001005391
0.0005942805
0.0001005392
0.0001005391
0.0001005391
0.0001005391
0.0001005392
0.0005943563
0.0001005393
0.0001005391
0.0001005392
0.0001005392
0.0001005392
0.0005944325
0.0001005394
0.0001005392
0.0001005393
0.0001005393
0.0001005393
0.0005945094
0.0001005395
0.0001005393
0.0001005393
0.0001005394
0.0001005394
0.0005945868
0.0001005395
0.0001005393
0.0001005394
0.0001005394
0.0001005395
0.0005946652
0.0001005396
0.0001005394
0.0001005395
0.0001005395
0.0001005395
0.0005947443
0.0001005397
0.0001005395
0.0001005395
0.0001005396
0.0001005396
0.000594825
0.0001005398
0.0001005396
0.0001005396
0.0001005396
0.0001005397
0.0005949112
0.0001005399
0.0001005396
0.0001005397
0.0001005397
0.0001005398
0.0005951864
0.00010054
0.0001005397
0.0001005398
0.0001005398
0.0001005398
0.0005949094
0.0005936312
0.0005938172
0.0005939466
0.0005940247
0.0005940878
0.0005949488
0.0001005384
0.0001005383
0.0001005383
0.0001005383
0.0001005384
0.0005936472
0.0001005384
0.0001005383
0.0001005383
0.0001005384
0.0001005384
0.0005938313
0.0001005384
0.0001005384
0.0001005384
0.0001005384
0.0001005385
0.0005939621
0.0001005385
0.0001005384
0.0001005385
0.0001005385
0.0001005385
0.000594047
0.0001005386
0.0001005385
0.0001005385
0.0001005385
0.0001005386
0.0005941235
0.0001005386
0.0001005385
0.0001005386
0.0001005386
0.0001005386
0.0005941985
0.0001005387
0.0001005386
0.0001005386
0.0001005387
0.0001005387
0.0005942721
0.0001005387
0.0001005386
0.0001005387
0.0001005387
0.0001005387
0.0005943461
0.0001005388
0.0001005387
0.0001005387
0.0001005388
0.0001005388
0.0005944202
0.0001005389
0.0001005388
0.0001005388
0.0001005388
0.0001005389
0.0005944949
0.0001005389
0.0001005388
0.0001005389
0.0001005389
0.0001005389
0.00059457
0.000100539
0.0001005389
0.0001005389
0.000100539
0.000100539
0.0005946459
0.0001005391
0.0001005389
0.000100539
0.000100539
0.0001005391
0.0005947226
0.0001005391
0.000100539
0.0001005391
0.0001005391
0.0001005391
0.0005947999
0.0001005392
0.0001005391
0.0001005391
0.0001005392
0.0001005392
0.0005948781
0.0001005393
0.0001005391
0.0001005392
0.0001005392
0.0001005393
0.0005949565
0.0001005393
0.0001005392
0.0001005393
0.0001005393
0.0001005393
0.0005950358
0.0001005394
0.0001005393
0.0001005393
0.0001005394
0.0001005394
0.0005951159
0.0001005395
0.0001005393
0.0001005394
0.0001005394
0.0001005395
0.000595196
0.0001005396
0.0001005394
0.0001005395
0.0001005395
0.0001005395
0.0005952744
0.0001005396
0.0001005395
0.0001005395
0.0001005396
0.0001005396
0.0005953474
0.0001005397
0.0001005396
0.0001005396
0.0001005396
0.0001005397
0.000595421
0.0001005398
0.0001005396
0.0001005397
0.0001005397
0.0001005398
0.000595044
0.0005938142
0.0005940228
0.0005941684
0.0005942454
0.0005942907
0.0005950861
0.0001005384
0.0001005383
0.0001005383
0.0001005383
0.0001005384
0.0005938302
0.0001005384
0.0001005383
0.0001005383
0.0001005384
0.0001005384
0.0005940372
0.0001005384
0.0001005384
0.0001005384
0.0001005384
0.0001005385
0.0005941858
0.0001005385
0.0001005384
0.0001005385
0.0001005385
0.0001005385
0.0005942774
0.0001005385
0.0001005385
0.0001005385
0.0001005385
0.0001005386
0.000594358
0.0001005386
0.0001005385
0.0001005386
0.0001005386
0.0001005386
0.0005944334
0.0001005387
0.0001005386
0.0001005386
0.0001005387
0.0001005387
0.0005945085
0.0001005387
0.0001005386
0.0001005387
0.0001005387
0.0001005387
0.0005945825
0.0001005388
0.0001005387
0.0001005387
0.0001005388
0.0001005388
0.0005946567
0.0001005389
0.0001005388
0.0001005388
0.0001005388
0.0001005389
0.0005947309
0.0001005389
0.0001005388
0.0001005389
0.0001005389
0.0001005389
0.0005948063
0.000100539
0.0001005389
0.0001005389
0.000100539
0.000100539
0.0005948823
0.0001005391
0.000100539
0.000100539
0.000100539
0.0001005391
0.000594959
0.0001005391
0.000100539
0.0001005391
0.0001005391
0.0001005391
0.0005950363
0.0001005392
0.0001005391
0.0001005391
0.0001005392
0.0001005392
0.0005951145
0.0001005393
0.0001005391
0.0001005392
0.0001005392
0.0001005393
0.000595193
0.0001005393
0.0001005392
0.0001005392
0.0001005393
0.0001005393
0.0005952724
0.0001005394
0.0001005393
0.0001005393
0.0001005394
0.0001005394
0.0005953521
0.0001005395
0.0001005393
0.0001005394
0.0001005394
0.0001005395
0.000595431
0.0001005396
0.0001005394
0.0001005395
0.0001005395
0.0001005395
0.0005955053
0.0001005396
0.0001005395
0.0001005395
0.0001005396
0.0001005396
0.0005955675
0.0001005397
0.0001005396
0.0001005396
0.0001005396
0.0001005397
0.0005956122
0.0001005398
0.0001005396
0.0001005397
0.0001005397
0.0001005398
0.0005950751
0.0005938659
0.0005940871
0.000594237
0.000594315
0.0005943549
0.0005951092
0.0001005384
0.0001005383
0.0001005383
0.0001005383
0.0001005384
0.0005938822
0.0001005384
0.0001005383
0.0001005383
0.0001005384
0.0001005384
0.0005941024
0.0001005384
0.0001005384
0.0001005384
0.0001005384
0.0001005385
0.0005942562
0.0001005385
0.0001005384
0.0001005385
0.0001005385
0.0001005385
0.000594351
0.0001005385
0.0001005385
0.0001005385
0.0001005385
0.0001005386
0.0005944328
0.0001005386
0.0001005385
0.0001005386
0.0001005386
0.0001005386
0.0005945078
0.0001005387
0.0001005386
0.0001005386
0.0001005387
0.0001005387
0.000594584
0.0001005387
0.0001005386
0.0001005387
0.0001005387
0.0001005387
0.0005946583
0.0001005388
0.0001005387
0.0001005387
0.0001005388
0.0001005388
0.0005947324
0.0001005389
0.0001005388
0.0001005388
0.0001005388
0.0001005389
0.0005948064
0.0001005389
0.0001005388
0.0001005389
0.0001005389
0.0001005389
0.0005948819
0.000100539
0.0001005389
0.0001005389
0.000100539
0.000100539
0.000594958
0.000100539
0.000100539
0.000100539
0.000100539
0.0001005391
0.0005950346
0.0001005391
0.000100539
0.000100539
0.0001005391
0.0001005391
0.0005951116
0.0001005392
0.0001005391
0.0001005391
0.0001005392
0.0001005392
0.0005951895
0.0001005393
0.0001005391
0.0001005392
0.0001005392
0.0001005393
0.0005952679
0.0001005393
0.0001005392
0.0001005392
0.0001005393
0.0001005393
0.0005953469
0.0001005394
0.0001005393
0.0001005393
0.0001005394
0.0001005394
0.0005954263
0.0001005395
0.0001005393
0.0001005394
0.0001005394
0.0001005395
0.0005955056
0.0001005396
0.0001005394
0.0001005395
0.0001005395
0.0001005395
0.0005955789
0.0001005396
0.0001005395
0.0001005395
0.0001005396
0.0001005396
0.0005956368
0.0001005397
0.0001005396
0.0001005396
0.0001005396
0.0001005397
0.0005956946
0.0001005398
0.0001005396
0.0001005397
0.0001005397
0.0001005398
0.0005950689
0.0005938684
0.0005940898
0.0005942396
0.0005943181
0.0005943565
0.0005951137
0.0001005384
0.0001005383
0.0001005383
0.0001005383
0.0001005384
0.0005938855
0.0001005384
0.0001005383
0.0001005383
0.0001005384
0.0001005384
0.000594106
0.0001005384
0.0001005384
0.0001005384
0.0001005384
0.0001005385
0.00059426
0.0001005385
0.0001005384
0.0001005385
0.0001005385
0.0001005385
0.0005943546
0.0001005385
0.0001005385
0.0001005385
0.0001005385
0.0001005386
0.0005944361
0.0001005386
0.0001005385
0.0001005386
0.0001005386
0.0001005386
0.0005945111
0.0001005387
0.0001005386
0.0001005386
0.0001005387
0.0001005387
0.0005945872
0.0001005387
0.0001005386
0.0001005387
0.0001005387
0.0001005387
0.0005946618
0.0001005388
0.0001005387
0.0001005387
0.0001005388
0.0001005388
0.0005947355
0.0001005389
0.0001005388
0.0001005388
0.0001005388
0.0001005389
0.0005948096
0.0001005389
0.0001005388
0.0001005389
0.0001005389
0.0001005389
0.0005948852
0.000100539
0.0001005389
0.0001005389
0.000100539
0.000100539
0.0005949612
0.0001005391
0.000100539
0.000100539
0.000100539
0.0001005391
0.0005950378
0.0001005391
0.000100539
0.000100539
0.0001005391
0.0001005391
0.0005951151
0.0001005392
0.0001005391
0.0001005391
0.0001005392
0.0001005392
0.0005951928
0.0001005393
0.0001005391
0.0001005392
0.0001005392
0.0001005393
0.0005952714
0.0001005393
0.0001005392
0.0001005392
0.0001005393
0.0001005393
0.0005953502
0.0001005394
0.0001005393
0.0001005393
0.0001005394
0.0001005394
0.0005954294
0.0001005395
0.0001005393
0.0001005394
0.0001005394
0.0001005395
0.0005955083
0.0001005396
0.0001005394
0.0001005395
0.0001005395
0.0001005395
0.0005955816
0.0001005396
0.0001005395
0.0001005395
0.0001005396
0.0001005396
0.0005956393
0.0001005397
0.0001005396
0.0001005396
0.0001005396
0.0001005397
0.0005956931
0.0001005398
0.0001005396
0.0001005397
0.0001005397
0.0001005398
0.0005950671
0.0005938452
0.000594059
0.0005942056
0.0005942818
0.0005943223
0.0005951029
0.0001005384
0.0001005383
0.0001005383
0.0001005383
0.0001005384
0.0005938627
0.0001005384
0.0001005383
0.0001005383
0.0001005384
0.0001005384
0.0005940744
0.0001005384
0.0001005384
0.0001005384
0.0001005384
0.0001005385
0.0005942245
0.0001005385
0.0001005384
0.0001005385
0.0001005385
0.0001005385
0.0005943156
0.0001005385
0.0001005385
0.0001005385
0.0001005385
0.0001005386
0.0005943961
0.0001005386
0.0001005385
0.0001005386
0.0001005386
0.0001005386
0.000594472
0.0001005387
0.0001005386
0.0001005386
0.0001005387
0.0001005387
0.0005945479
0.0001005387
0.0001005386
0.0001005387
0.0001005387
0.0001005387
0.0005946222
0.0001005388
0.0001005387
0.0001005387
0.0001005388
0.0001005388
0.0005946956
0.0001005389
0.0001005388
0.0001005388
0.0001005388
0.0001005389
0.0005947699
0.0001005389
0.0001005388
0.0001005389
0.0001005389
0.0001005389
0.0005948448
0.000100539
0.0001005389
0.0001005389
0.000100539
0.000100539
0.0005949208
0.0001005391
0.000100539
0.000100539
0.000100539
0.0001005391
0.0005949974
0.0001005391
0.000100539
0.0001005391
0.0001005391
0.0001005391
0.0005950753
0.0001005392
0.0001005391
0.0001005391
0.0001005392
0.0001005392
0.0005951532
0.0001005393
0.0001005391
0.0001005392
0.0001005392
0.0001005393
0.0005952322
0.0001005393
0.0001005392
0.0001005392
0.0001005393
0.0001005393
0.0005953111
0.0001005394
0.0001005393
0.0001005393
0.0001005394
0.0001005394
0.0005953897
0.0001005395
0.0001005393
0.0001005394
0.0001005394
0.0001005395
0.0005954694
0.0001005396
0.0001005394
0.0001005395
0.0001005395
0.0001005395
0.0005955435
0.0001005396
0.0001005395
0.0001005395
0.0001005396
0.0001005396
0.0005956049
0.0001005397
0.0001005396
0.0001005396
0.0001005396
0.0001005397
0.0005956647
0.0001005398
0.0001005396
0.0001005397
0.0001005397
0.0001005398
0.0005949836
0.0005936917
0.0005938771
0.000594014
0.0005940906
0.0005941422
0.0005950234
0.0001005384
0.0001005383
0.0001005383
0.0001005383
0.0001005384
0.0005937078
0.0001005384
0.0001005383
0.0001005383
0.0001005384
0.0001005384
0.0005938915
0.0001005384
0.0001005384
0.0001005384
0.0001005384
0.0001005385
0.0005940294
0.0001005385
0.0001005384
0.0001005385
0.0001005385
0.0001005385
0.0005941169
0.0001005386
0.0001005385
0.0001005385
0.0001005385
0.0001005386
0.0005941952
0.0001005386
0.0001005385
0.0001005386
0.0001005386
0.0001005386
0.0005942705
0.0001005387
0.0001005386
0.0001005386
0.0001005387
0.0001005387
0.0005943455
0.0001005387
0.0001005386
0.0001005387
0.0001005387
0.0001005387
0.0005944188
0.0001005388
0.0001005387
0.0001005387
0.0001005388
0.0001005388
0.000594493
0.0001005389
0.0001005388
0.0001005388
0.0001005388
0.0001005389
0.0005945675
0.0001005389
0.0001005388
0.0001005389
0.0001005389
0.0001005389
0.0005946432
0.000100539
0.0001005389
0.0001005389
0.000100539
0.000100539
0.0005947193
0.0001005391
0.0001005389
0.000100539
0.000100539
0.0001005391
0.0005947961
0.0001005391
0.000100539
0.0001005391
0.0001005391
0.0001005391
0.0005948734
0.0001005392
0.0001005391
0.0001005391
0.0001005392
0.0001005392
0.0005949515
0.0001005393
0.0001005391
0.0001005392
0.0001005392
0.0001005393
0.0005950301
0.0001005393
0.0001005392
0.0001005393
0.0001005393
0.0001005393
0.0005951092
0.0001005394
0.0001005393
0.0001005393
0.0001005394
0.0001005394
0.0005951894
0.0001005395
0.0001005393
0.0001005394
0.0001005394
0.0001005395
0.0005952694
0.0001005396
0.0001005394
0.0001005395
0.0001005395
0.0001005395
0.0005953468
0.0001005396
0.0001005395
0.0001005395
0.0001005396
0.0001005396
0.0005954153
0.0001005397
0.0001005396
0.0001005396
0.0001005397
0.0001005397
0.0005955081
0.0001005398
0.0001005396
0.0001005397
0.0001005397
0.0001005398
0.0005952909
0.0005945156
0.0005946971
0.0005948071
0.0005948844
0.0005949652
0.0005953397
0.0001005384
0.0001005383
0.0001005383
0.0001005384
0.0001005384
0.0005945296
0.0001005384
0.0001005383
0.0001005384
0.0001005384
0.0001005384
0.0005947098
0.0001005385
0.0001005384
0.0001005384
0.0001005385
0.0001005385
0.0005948196
0.0001005385
0.0001005384
0.0001005385
0.0001005385
0.0001005385
0.0005948982
0.0001005386
0.0001005385
0.0001005385
0.0001005386
0.0001005386
0.000594972
0.0001005386
0.0001005386
0.0001005386
0.0001005386
0.0001005387
0.0005950444
0.0001005387
0.0001005386
0.0001005387
0.0001005387
0.0001005387
0.0005951171
0.0001005388
0.0001005387
0.0001005387
0.0001005387
0.0001005388
0.0005951901
0.0001005389
0.0001005387
0.0001005388
0.0001005388
0.0001005388
0.0005952638
0.0001005389
0.0001005388
0.0001005388
0.0001005389
0.0001005389
0.000595338
0.000100539
0.0001005389
0.0001005389
0.0001005389
0.000100539
0.0005954128
0.0001005391
0.0001005389
0.000100539
0.000100539
0.000100539
0.0005954883
0.0001005391
0.000100539
0.000100539
0.0001005391
0.0001005391
0.0005955641
0.0001005392
0.0001005391
0.0001005391
0.0001005391
0.0001005392
0.0005956409
0.0001005393
0.0001005391
0.0001005392
0.0001005392
0.0001005392
0.0005957182
0.0001005394
0.0001005392
0.0001005392
0.0001005393
0.0001005393
0.0005957958
0.0001005394
0.0001005393
0.0001005393
0.0001005393
0.0001005394
0.0005958741
0.0001005395
0.0001005393
0.0001005394
0.0001005394
0.0001005395
0.0005959535
0.0001005396
0.0001005394
0.0001005395
0.0001005395
0.0001005395
0.0005960338
0.0001005397
0.0001005395
0.0001005395
0.0001005396
0.0001005396
0.0005961128
0.0001005398
0.0001005396
0.0001005396
0.0001005396
0.0001005397
0.0005961936
0.0001005399
0.0001005396
0.0001005397
0.0001005397
0.0001005398
0.0005963897
0.00010054
0.0001005397
0.0001005397
0.0001005398
0.0001005398
0.0002075774
0.0002049731
0.0002050364
0.0002051349
0.0002052321
0.0002053328
0.0002075813
0.0001006194
0.0001006225
0.0001006317
0.0001006392
0.0001006474
0.0001006562
0.0002049801
0.0001006177
0.0001006154
0.0001006257
0.0001006311
0.0001006358
0.00010064
0.0002050454
0.0001006181
0.0001006154
0.0001006164
0.0001006228
0.0001006275
0.0001006317
0.0002051472
0.0001006183
0.0001006157
0.0001006162
0.0001006171
0.0001006229
0.0001006271
0.0002052462
0.0001006186
0.000100616
0.0001006164
0.0001006167
0.0001006175
0.0001006229
0.0002053454
0.0001006189
0.0001006162
0.0001006167
0.0001006169
0.0001006171
0.0001006178
0.0002054434
0.0001006192
0.0001006165
0.0001006169
0.0001006172
0.0001006174
0.0001006175
0.0002055412
0.0001006195
0.0001006167
0.0001006172
0.0001006175
0.0001006176
0.0001006177
0.0002056385
0.0001006198
0.000100617
0.0001006175
0.0001006178
0.0001006179
0.000100618
0.0002057352
0.0001006202
0.0001006173
0.0001006178
0.0001006181
0.0001006182
0.0001006183
0.0002058328
0.0001006206
0.0001006177
0.0001006181
0.0001006184
0.0001006185
0.0001006187
0.0002059313
0.000100621
0.000100618
0.0001006184
0.0001006187
0.0001006189
0.000100619
0.0002060305
0.0001006214
0.0001006184
0.0001006188
0.000100619
0.0001006192
0.0001006194
0.0002061304
0.0001006219
0.0001006187
0.0001006191
0.0001006194
0.0001006196
0.0001006197
0.0002062327
0.0001006224
0.0001006191
0.0001006195
0.0001006198
0.00010062
0.0001006201
0.0002063357
0.0001006229
0.0001006196
0.0001006199
0.0001006202
0.0001006204
0.0001006205
0.000206438
0.0001006234
0.00010062
0.0001006204
0.0001006206
0.0001006208
0.0001006209
0.0002065406
0.0001006239
0.0001006204
0.0001006208
0.000100621
0.0001006212
0.0001006214
0.0002066435
0.0001006245
0.0001006209
0.0001006213
0.0001006215
0.0001006217
0.0001006218
0.0002067477
0.0001006251
0.0001006214
0.0001006217
0.000100622
0.0001006222
0.0001006223
0.0002068529
0.0001006257
0.0001006219
0.0001006222
0.0001006225
0.0001006227
0.0001006229
0.0002069591
0.0001006264
0.0001006224
0.0001006228
0.000100623
0.0001006232
0.0001006234
0.0002070821
0.0001008203
0.0001007583
0.0001007581
0.0001007596
0.0001007687
0.000100772
0.0002994519
0.0001834488
0.0001834333
0.0001005387
0.0003014062
0.0002900095
0.0002075776
0.0002049883
0.0001005387
0.0001005388
0.0002896993
0.0002895638
0.0002049706
0.0002050188
0.0001005388
0.0001005389
0.0002895251
0.000289619
0.0002050338
0.0002051182
0.0001005389
0.000100539
0.0002895912
0.0002897021
0.0002051326
0.0002052137
0.000100539
0.0001005392
0.0002896781
0.0002898069
0.0002052289
0.0002053104
0.0001005391
0.0001005392
0.0002897968
0.00020533
0.0001005392
0.0003014011
0.0002900036
0.0002075806
0.0001005388
0.0002049858
0.0001005389
0.0002896955
0.0002895585
0.0002049798
0.0001005389
0.0002050153
0.000100539
0.0002895221
0.0002896147
0.0002050448
0.000100539
0.0002051131
0.0001005392
0.0002895882
0.0002896971
0.0002051462
0.0001005391
0.0002052089
0.0001005394
0.000289672
0.000289785
0.0002052454
0.0001005393
0.0002053054
0.0001005395
0.0002897594
0.0002898747
0.0002053447
0.0001005394
0.0002054034
0.0001005397
0.0002898482
0.0002899655
0.000205443
0.0001005395
0.0002055015
0.0001005399
0.0002899384
0.0002900559
0.0002055412
0.0001005396
0.0002055998
0.00010054
0.0002900267
0.000290145
0.0002056383
0.0001005398
0.0002056987
0.0001005402
0.0002901145
0.0002902349
0.0002057351
0.0001005399
0.0002057972
0.0001005404
0.0002902021
0.0002903257
0.0002058325
0.0001005401
0.0002058971
0.0001005406
0.0002902902
0.0002904174
0.0002059312
0.0001005403
0.0002059977
0.0001005408
0.0002903785
0.0002905092
0.0002060298
0.0001005404
0.000206099
0.0001005409
0.0002904678
0.0002906023
0.0002061293
0.0001005406
0.000206201
0.0001005411
0.0002905578
0.0002906964
0.00020623
0.0001005408
0.0002063041
0.0001005413
0.0002906486
0.0002907912
0.0002063332
0.0001005409
0.000206408
0.0001005415
0.00029074
0.0002908869
0.0002064358
0.0001005411
0.0002065129
0.0001005417
0.0002908324
0.0002909833
0.0002065391
0.0001005413
0.0002066186
0.0001005419
0.0002909257
0.0002910808
0.000206642
0.0001005415
0.0002067247
0.0001005421
0.0002910203
0.0002911799
0.000206746
0.0001005417
0.0002068319
0.0001005424
0.0002911168
0.0002912846
0.0002068509
0.0001005419
0.0002069413
0.0001005426
0.0002912217
0.000291422
0.0002069586
0.0001005421
0.0002070589
0.0001005428
0.0002913801
0.0001010082
0.000207082
0.0001005422
0.000207259
0.000100543
0.0002079091
0.0002079153
0.0001005389
0.0002055232
0.0002055344
0.0001005389
0.000205511
0.0002055227
0.0001005389
0.00020548
0.0002055079
0.0001005389
0.0002054859
0.0002055059
0.0001005389
0.000205483
0.0002055132
0.0001005389
0.0002054917
0.000205507
0.0001005389
0.0002054804
0.0002055164
0.0001005389
0.000205481
0.0002055137
0.0001005389
0.0002054808
0.000205515
0.0001005389
0.0002054874
0.000205509
0.0001005389
0.0002054982
0.0002055013
0.0001005389
0.0002054873
0.0002055029
0.0001005389
0.0002054975
0.0002055354
0.0001005389
0.0002055077
0.0002055478
0.0001005389
0.0002079067
0.0002079158
0.0001005389
0.0001834396
0.0001834352
0.0001005386
0.0002994514
0.0002049891
0.0001005387
0.0001005388
0.0003014071
0.0002900057
0.0002050193
0.0001005388
0.0001005389
0.0002896966
0.0002895611
0.0002052137
0.0001005391
0.0001005392
0.0002895922
0.0002896998
0.0002053098
0.0001005391
0.0001005392
0.0002896777
0.0002898069
0.0001005392
0.0002897976
0.0001005388
0.0002049847
0.0001005389
0.0003014014
0.0002900029
0.0001005389
0.0002050136
0.000100539
0.0002896939
0.0002895586
0.0001005391
0.0002052064
0.0001005394
0.0002895859
0.0002896979
0.0001005394
0.0002054002
0.0001005397
0.0002897586
0.0002898735
0.0001005395
0.0002054977
0.0001005399
0.0002898474
0.0002899645
0.0001005396
0.0002055958
0.00010054
0.0002899374
0.0002900551
0.0001005398
0.0002056942
0.0001005402
0.000290026
0.0002901442
0.0001005399
0.0002057927
0.0001005404
0.0002901136
0.0002902341
0.0001005401
0.0002058917
0.0001005406
0.0002902015
0.0002903256
0.0001005402
0.0002059927
0.0001005408
0.0002902897
0.0002904165
0.0001005404
0.0002060936
0.000100541
0.0002903781
0.0002905084
0.0001005406
0.0002061965
0.0001005412
0.0002904671
0.0002906006
0.0001005408
0.0002062995
0.0001005414
0.0002905563
0.0002906947
0.0001005411
0.0002065072
0.0001005418
0.0002907393
0.0002908861
0.0001005413
0.000206613
0.000100542
0.000290832
0.0002909823
0.0001005415
0.0002067198
0.0001005422
0.0002909251
0.0002910787
0.0001005417
0.0002068272
0.0001005424
0.0002910186
0.0002911803
0.0001005421
0.0002070529
0.0001005428
0.0002912234
0.0002914215
0.0001005422
0.0002072586
0.000100543
0.0002913803
0.0001011104
0.0001006625
0.0001409312
0.0001006172
0.0001386371
0.0001006046
0.0001384638
0.0001006221
0.0001384425
0.0001006043
0.0001384787
0.0001006275
0.0001385426
0.000100607
0.0001385754
0.0001006341
0.0001386463
0.0001006099
0.0001386724
0.0001006406
0.0001387489
0.0001006125
0.00013877
0.0001006471
0.0001388501
0.0001006154
0.0001388682
0.0001006538
0.0001389501
0.0001006176
0.0001389666
0.0001006607
0.00013905
0.0001006188
0.0001390656
0.0001006674
0.0001391503
0.0001006195
0.0001391649
0.000100674
0.0001392513
0.0001006205
0.0001392648
0.0001006802
0.0001393514
0.0001006226
0.0001393653
0.0001006864
0.0001394513
0.0001006245
0.0001394664
0.0001006924
0.0001395512
0.0001006267
0.0001395682
0.0001006982
0.0001396516
0.0001006288
0.0001396706
0.0001007038
0.0001397521
0.0001006314
0.000139774
0.0001007093
0.0001398529
0.0001006338
0.0001398781
0.0001007147
0.0001399539
0.0001006365
0.000139983
0.0001007201
0.0001400557
0.0001006388
0.0001400887
0.0001007252
0.0001401577
0.0001006415
0.0001401954
0.0001007304
0.0001402603
0.0001006438
0.0001403028
0.0001007353
0.0001403632
0.0001006465
0.000140411
0.0001007402
0.0001404669
0.0001006489
0.0001405207
0.0001007451
0.000140574
0.0001006515
0.0001406424
0.000100663
0.0001006625
0.0001006634
0.0001006628
0.0001006633
0.0001006632
0.0001006632
0.0001006631
0.0001006629
0.0001006632
0.000100663
0.0001006631
0.0001006631
0.0001006632
0.0001006629
0.0001006633
0.0001006611
0.0001006624
0.0002051188
0.0001005389
0.000100539
0.0002895236
0.0002896191
0.000100539
0.0002051121
0.000100539
0.0002895238
0.0002896109
0.0001005392
0.0002053029
0.0001005393
0.0002896733
0.0002897821
0.0001005409
0.0002064029
0.0001005409
0.0002906472
0.0002907835
0.0001005418
0.0002069353
0.0001005418
0.0002911172
0.0002912769
0.0001006053
0.0001387908
0.0001006135
0.0001437405
0.0001006611
0.0001006622
0.0001006044
0.0001384439
0.000100622
0.0001384335
0.0001006074
0.0001385355
0.0001006292
0.0001384766
0.00010061
0.0001386357
0.000100637
0.0001385787
0.0001006127
0.0001387364
0.0001006447
0.0001386792
0.0001006154
0.0001388365
0.0001006521
0.0001387785
0.000100618
0.0001389361
0.0001006593
0.0001388785
0.0001006208
0.0001390364
0.0001006664
0.0001389775
0.0001006237
0.0001391369
0.0001006733
0.0001390761
0.0001006266
0.0001392388
0.0001006802
0.000139174
0.0001006295
0.0001393408
0.0001006869
0.0001392722
0.0001006324
0.0001394433
0.0001006935
0.0001393705
0.0001006353
0.0001395465
0.0001006998
0.0001394688
0.0001006382
0.0001396505
0.000100706
0.0001395672
0.0001006411
0.000139755
0.000100712
0.0001396662
0.000100644
0.0001398605
0.000100718
0.0001397656
0.0001006468
0.0001399666
0.0001007237
0.0001398656
0.0001006498
0.0001400738
0.0001007294
0.000139966
0.0001006527
0.0001401817
0.0001007348
0.0001400672
0.0001006558
0.0001402904
0.0001007402
0.0001401688
0.0001006588
0.0001403999
0.0001007454
0.0001402713
0.0001006618
0.0001405104
0.0001007504
0.0001403741
0.0001006649
0.0001406236
0.0001007552
0.0001404786
0.0001006683
0.0001011941
0.000140601
0.0001007616
0.0001006626
0.000100663
0.0001006632
0.000100663
0.0001006631
0.0001006632
0.0001006632
0.0001006631
0.0001006629
0.0001006635
0.0001006631
0.0001006632
0.0001006633
0.0001006631
0.000100663
0.0001006626
0.0001006626
0.0001409301
0.000100589
0.0001387982
0.0001005904
0.0001437457
0.0001005963
0.0001386409
0.0001006145
0.0001386823
0.0001006144
0.0001387504
0.0001005955
0.0001386685
0.0001006173
0.0001386508
0.0001006046
0.0001384646
0.0001006044
0.0001384457
0.0001006222
0.0001384345
0.0001006221
0.0001384395
0.0001006042
0.0001384784
0.0001006074
0.0001385376
0.0001006295
0.0001384772
0.0001006128
0.0001387409
0.0001006451
0.0001386794
0.0001006471
0.0001388496
0.0001006154
0.0001388678
0.000100618
0.0001389419
0.0001006598
0.000138878
0.0001006538
0.000138949
0.0001006174
0.000138966
0.0001006208
0.0001390427
0.000100667
0.0001389769
0.0001006607
0.0001390487
0.0001006188
0.0001390651
0.0001006237
0.000139144
0.0001006739
0.0001390755
0.0001006674
0.0001391494
0.0001006194
0.0001391644
0.0001006266
0.0001392463
0.0001006809
0.0001391735
0.000100674
0.0001392501
0.0001006205
0.0001392644
0.0001006295
0.0001393489
0.0001006877
0.0001392716
0.0001006802
0.0001393504
0.0001006224
0.0001393635
0.0001006864
0.0001394495
0.0001006245
0.000139466
0.0001006353
0.0001395554
0.0001007006
0.0001394683
0.0001006923
0.0001395503
0.0001006266
0.0001395677
0.0001006382
0.0001396597
0.0001007069
0.0001395668
0.0001006499
0.0001400841
0.0001007305
0.0001399663
0.00010072
0.0001400547
0.0001006388
0.0001400884
0.0001006528
0.0001401922
0.000100736
0.0001400669
0.0001007402
0.0001404665
0.0001006489
0.0001405196
0.0001006649
0.0001406353
0.0001007566
0.0001404774
0.000100745
0.0001405734
0.0001006513
0.0001406438
0.000100668
0.0001407986
0.0001406002
0.0001007617
0.0002073007
0.000100708
0.0002073013
0.0001005425
0.0001005425
0.0001015407
0.0001009235
0.0001006551
0.0001407469
0.0001006551
0.0001786241
0.0001762435
0.0001549974
0.0001541564
0.0001550484
0.0001541392
0.0001550668
0.0001542425
0.0001550958
0.0001542265
0.0001551516
0.0001543306
0.0001551847
0.0001543116
0.0001552356
0.0001544181
0.0001552726
0.0001543967
0.0001553196
0.0001545063
0.0001553602
0.000154482
0.0001554036
0.0001545948
0.0001554477
0.0001545674
0.000155488
0.0001546828
0.0001555351
0.0001546529
0.0001555729
0.0001547709
0.0001556229
0.0001547389
0.0001556585
0.0001548596
0.0001557119
0.0001548253
0.0001557447
0.0001549487
0.0001558011
0.0001549123
0.0001558313
0.0001550383
0.0001558907
0.0001549997
0.0001559186
0.0001551283
0.0001559808
0.0001550877
0.0001560065
0.0001552189
0.0001560712
0.0001551764
0.0001560952
0.0001553099
0.0001561622
0.0001552657
0.0001561846
0.0001554018
0.0001562537
0.0001553558
0.0001562747
0.0001554943
0.0001563458
0.0001554468
0.0001563658
0.0001555876
0.0001564387
0.0001555386
0.0001564576
0.0001556816
0.0001565324
0.0001556313
0.0001565504
0.0001557766
0.0001566268
0.0001557249
0.0001566441
0.0001558722
0.0001567219
0.0001558194
0.0001567389
0.000155969
0.0001568179
0.000155915
0.0001568346