/*--------------------------------*- C++ -*----------------------------------*\
  =========                 |
  \\      /  F ield         | OpenFOAM: The Open Source CFD Toolbox
   \\    /   O peration     | Website:  https://openfoam.org
    \\  /    A nd           | Version:  7
     \\/     M anipulation  |
\*---------------------------------------------------------------------------*/
FoamFile
{
    version     2.0;
    format      ascii;
    class       volScalarField;
    location    "0.09";
    object      p;
}
// * * * * * * * * * * * * * * * * * * * * * * * * * * * * * * * * * * * * * //

dimensions      [0 2 -2 0 0 0 0];

internalField   nonuniform List<scalar> 
80136
(
2.01104
2.011164
2.011365
2.011643
2.011959
2.012337
2.012745
2.010924
2.011048
2.011281
2.011543
2.011893
2.012284
2.012717
2.01072
2.010829
2.01108
2.011364
2.011737
2.01216
2.012627
2.010436
2.010557
2.010838
2.01114
2.01155
2.012011
2.012525
2.010067
2.010191
2.010496
2.01083
2.01128
2.011794
2.012366
2.009614
2.009754
2.010081
2.010451
2.010944
2.011518
2.012158
2.009027
2.009226
2.009554
2.009976
2.010515
2.011165
2.011879
2.008372
2.008581
2.00893
2.009396
2.009984
2.01071
2.011506
2.007558
2.007796
2.008174
2.008691
2.009336
2.010149
2.011033
2.006616
2.006879
2.007286
2.007849
2.008548
2.009437
2.010409
2.005517
2.005806
2.006248
2.006855
2.007611
2.008576
2.009641
2.004274
2.004566
2.00505
2.00569
2.006499
2.00752
2.00867
2.002862
2.003186
2.003693
2.004355
2.005208
2.006274
2.007496
2.001332
2.001582
2.002154
2.002821
2.003714
2.004807
2.006084
1.999602
1.999845
2.000438
2.00111
2.002023
2.003129
2.004438
1.997647
1.99797
1.998513
1.999201
2.000114
2.001219
2.002536
1.995623
1.995854
1.996432
1.997098
1.998014
1.999102
2.000413
1.993355
1.993564
1.994142
1.994785
1.995693
1.996741
1.998025
1.990918
1.991088
1.991681
1.992304
1.993204
1.994223
1.995478
1.988281
1.988416
1.989029
1.989606
1.9905
1.991442
1.992664
1.985473
1.985609
1.986211
1.98678
1.987662
1.988598
1.989773
1.982458
1.982601
1.983231
1.983727
1.984656
1.985461
1.986709
1.979351
1.979428
1.980062
1.980585
1.981445
1.982374
1.983473
2.011075
2.011177
2.011333
2.011601
2.01187
2.012235
2.012544
2.013083
2.011006
2.011036
2.011169
2.011368
2.011641
2.011958
2.012335
2.012742
2.010906
2.010935
2.011048
2.011288
2.011547
2.011897
2.012284
2.012718
2.010738
2.01072
2.010826
2.011081
2.011361
2.011737
2.012158
2.012628
2.010499
2.010457
2.010557
2.010845
2.01114
2.011552
2.012011
2.012527
2.010191
2.010082
2.01018
2.0105
2.010826
2.01128
2.011792
2.012368
2.009625
2.009622
2.009742
2.010086
2.010447
2.010945
2.011517
2.01216
2.009178
2.009012
2.009227
2.009553
2.009973
2.010515
2.011163
2.011881
2.008686
2.008368
2.00859
2.00893
2.009394
2.009984
2.010707
2.011507
2.007918
2.007551
2.007805
2.008171
2.00869
2.009335
2.010147
2.011034
2.007068
2.006614
2.006892
2.007284
2.007848
2.008547
2.009434
2.010408
2.00597
2.005496
2.005812
2.006243
2.006853
2.00761
2.008575
2.009643
2.004665
2.004253
2.004552
2.005048
2.005686
2.006499
2.007518
2.00867
2.003351
2.002887
2.003167
2.003697
2.004351
2.005209
2.006274
2.007498
2.001744
2.001348
2.001557
2.002158
2.002816
2.003716
2.004806
2.006085
2.000003
1.999632
1.999829
2.000448
2.001106
2.002026
2.003129
2.00444
1.998302
1.997602
1.997976
1.998508
1.9992
2.000116
2.001219
2.002538
1.996261
1.99564
1.995859
1.996437
1.997097
1.998016
1.999102
2.000415
1.994023
1.993299
1.99358
1.994144
1.994787
1.995696
1.996743
1.998028
1.991753
1.990915
1.991104
1.991684
1.992303
1.993206
1.994221
1.995479
1.989159
1.988241
1.988442
1.989035
1.989612
1.990505
1.991448
1.992668
1.98666
1.985464
1.985642
1.986216
1.986775
1.987662
1.988585
1.989771
1.983975
1.982494
1.982617
1.983244
1.983741
1.984657
1.985475
1.986705
1.977117
1.979387
1.979413
1.980073
1.980557
1.981449
1.982336
1.983476
2.011078
2.011205
2.011443
2.011667
2.012006
2.012357
2.012772
2.010997
2.011038
2.011161
2.011379
2.011638
2.011969
2.012341
2.012752
2.010852
2.010915
2.011042
2.011272
2.011535
2.011887
2.012276
2.012712
2.01063
2.010696
2.010834
2.011075
2.011366
2.011738
2.012163
2.012632
2.010344
2.010417
2.010569
2.010825
2.01114
2.011544
2.012009
2.012526
2.009943
2.010036
2.010202
2.010483
2.010832
2.011276
2.011794
2.012369
2.009498
2.009581
2.009767
2.010065
2.010451
2.010938
2.011516
2.012159
2.00896
2.009014
2.009224
2.009541
2.009974
2.010509
2.011163
2.011881
2.008299
2.008347
2.008577
2.008915
2.009392
2.009978
2.010705
2.011505
2.007456
2.007535
2.007788
2.008161
2.008687
2.00933
2.010145
2.011036
2.006508
2.006599
2.006872
2.007274
2.007844
2.008541
2.009431
2.010405
2.005405
2.005508
2.005803
2.006238
2.006852
2.007606
2.008573
2.009645
2.004164
2.004261
2.004574
2.00504
2.005688
2.006493
2.007516
2.008666
2.002818
2.002875
2.003196
2.003681
2.004355
2.005202
2.006272
2.007497
2.001062
2.001286
2.001602
2.002133
2.002824
2.003707
2.004806
2.006082
1.999391
1.999559
1.999882
2.000414
2.001114
2.002015
2.003128
2.004437
1.997579
1.997648
1.997981
1.998498
1.999203
2.000107
2.001218
2.002534
1.995402
1.995557
1.995869
1.996404
1.997099
1.998004
1.9991
2.000411
1.993123
1.993273
1.99358
1.994111
1.99479
1.995683
1.996743
1.998023
1.990668
1.990825
1.991115
1.991645
1.992306
1.993193
1.994221
1.995478
1.98803
1.988186
1.98846
1.988993
1.989617
1.990487
1.991445
1.992659
1.985244
1.985383
1.985644
1.986174
1.986783
1.987654
1.988595
1.989782
1.982259
1.982412
1.982648
1.98319
1.983744
1.984633
1.985465
1.986693
1.979041
1.979257
1.979473
1.980025
1.980591
1.981458
1.982379
1.983515
2.01108
2.011235
2.011443
2.011697
2.012018
2.012379
2.012778
2.010989
2.011036
2.011158
2.011377
2.011637
2.011968
2.012341
2.012751
2.010834
2.010921
2.011043
2.011279
2.011542
2.011892
2.01228
2.012715
2.010613
2.010697
2.010825
2.011075
2.011363
2.011738
2.012161
2.012632
2.01034
2.010426
2.010563
2.010831
2.011139
2.011547
2.012009
2.012528
2.009946
2.010042
2.010192
2.010485
2.010827
2.011276
2.011793
2.012371
2.009483
2.009587
2.009754
2.010068
2.010446
2.010938
2.011514
2.012161
2.008903
2.009005
2.009205
2.009541
2.009966
2.010509
2.01116
2.011884
2.008234
2.008338
2.008556
2.008914
2.009384
2.009977
2.010701
2.011505
2.007417
2.007525
2.00777
2.008158
2.008678
2.00933
2.010142
2.011038
2.006471
2.006589
2.006854
2.007271
2.007835
2.00854
2.009426
2.010402
2.005358
2.005498
2.005783
2.006235
2.006843
2.007605
2.00857
2.009647
2.004079
2.004256
2.004552
2.00504
2.00568
2.006492
2.007512
2.008664
2.002687
2.002872
2.003171
2.003683
2.004347
2.005202
2.006269
2.007498
2.001142
2.001306
2.001603
2.00214
2.002821
2.003708
2.004803
2.006081
1.999403
1.999581
1.999873
2.000422
2.00111
2.002016
2.003126
2.004437
1.997458
1.997635
1.997958
1.998501
1.999198
2.000109
2.001217
2.002535
1.9954
1.995567
1.995863
1.996409
1.997094
1.998004
1.999097
2.00041
1.993137
1.993287
1.993582
1.994122
1.994791
1.995687
1.996745
1.998027
1.990671
1.990833
1.99111
1.991651
1.992299
1.993189
1.994214
1.995472
1.988046
1.98821
1.988471
1.989011
1.989629
1.990499
1.99146
1.992669
1.985239
1.985392
1.985638
1.986176
1.986768
1.987643
1.988572
1.989766
1.982268
1.982447
1.982669
1.983219
1.983779
1.984655
1.985508
1.986712
1.979094
1.979278
1.979467
1.980021
1.980551
1.981437
1.982318
1.983488
2.011077
2.011223
2.011442
2.011682
2.012015
2.012372
2.012775
2.010984
2.011033
2.011155
2.011379
2.011636
2.011971
2.012342
2.012752
2.010835
2.010913
2.01104
2.011272
2.011537
2.011888
2.012277
2.012712
2.01061
2.010688
2.010826
2.011071
2.011364
2.011738
2.012163
2.012633
2.010335
2.010412
2.010564
2.010822
2.011138
2.011543
2.012007
2.012527
2.009941
2.010027
2.010194
2.010476
2.010828
2.011273
2.011792
2.012371
2.009488
2.009573
2.009758
2.010058
2.010446
2.010934
2.011512
2.01216
2.008908
2.008998
2.009206
2.009532
2.009966
2.010505
2.011159
2.011884
2.008233
2.008327
2.008554
2.008905
2.009382
2.009972
2.010698
2.011504
2.007414
2.007519
2.007768
2.008152
2.008677
2.009326
2.01014
2.011039
2.006472
2.006586
2.006853
2.007266
2.007834
2.008536
2.009423
2.0104
2.005377
2.005501
2.005786
2.006232
2.006842
2.007603
2.008568
2.009649
2.004135
2.004264
2.004565
2.005038
2.005682
2.00649
2.007511
2.008663
2.002731
2.002868
2.003179
2.003675
2.004348
2.005198
2.006268
2.007499
2.00113
2.001293
2.001611
2.002132
2.002823
2.003705
2.004803
2.006081
1.999402
1.999559
1.99988
2.000409
2.00111
2.00201
2.003124
2.004436
1.997497
1.99764
1.997967
1.998495
1.9992
2.000105
2.001217
2.002535
1.995392
1.995545
1.995864
1.996394
1.997093
1.997998
1.999096
2.000408
1.993111
1.993263
1.993583
1.994107
1.994793
1.995682
1.996746
1.998025
1.99066
1.990807
1.991112
1.991632
1.992299
1.993182
1.994213
1.995472
1.988036
1.988184
1.988477
1.988992
1.98963
1.990489
1.991458
1.992664
1.985218
1.985362
1.98564
1.986157
1.98677
1.98764
1.988576
1.989773
1.98226
1.982412
1.98267
1.983188
1.983767
1.984631
1.985488
1.986697
1.979068
1.979235
1.979473
1.980003
1.980565
1.981447
1.982342
1.983514
2.01108
2.01122
2.011439
2.011682
2.012009
2.012374
2.012772
2.010977
2.011031
2.011153
2.011376
2.011634
2.011968
2.012342
2.012749
2.010836
2.010913
2.011038
2.01127
2.011535
2.011885
2.012276
2.01271
2.01061
2.010687
2.010824
2.01107
2.011362
2.011736
2.012161
2.01263
2.010335
2.010412
2.010562
2.01082
2.011136
2.011541
2.012005
2.012524
2.009943
2.010028
2.010193
2.010476
2.010826
2.011272
2.011791
2.012368
2.009479
2.009571
2.009754
2.010056
2.010443
2.010932
2.01151
2.012157
2.008901
2.008996
2.009202
2.009531
2.009963
2.010503
2.011157
2.011881
2.00823
2.008324
2.008551
2.008903
2.009379
2.00997
2.010696
2.0115
2.007409
2.007515
2.007763
2.008149
2.008674
2.009324
2.010138
2.011035
2.006467
2.006583
2.006848
2.007265
2.007831
2.008534
2.00942
2.010395
2.005369
2.005499
2.00578
2.00623
2.006839
2.007601
2.008566
2.009645
2.004126
2.004265
2.004563
2.005038
2.005681
2.006489
2.007509
2.00866
2.00274
2.002877
2.003182
2.003678
2.004348
2.005198
2.006267
2.007496
2.001166
2.001305
2.001621
2.002136
2.002825
2.003705
2.004803
2.00608
1.999421
1.999568
1.999885
2.000411
2.001111
2.00201
2.003124
2.004434
1.997495
1.997643
1.99797
1.998497
1.999202
2.000106
2.001218
2.002535
1.995382
1.995545
1.99586
1.996394
1.997091
1.997995
1.999093
2.000405
1.993145
1.993273
1.993597
1.994112
1.9948
1.995686
1.996751
1.998028
1.990647
1.990801
1.991104
1.991626
1.992291
1.993172
1.994205
1.995462
1.988039
1.988189
1.988489
1.989002
1.989651
1.990503
1.991478
1.992673
1.985214
1.985355
1.985628
1.986139
1.986748
1.987613
1.988554
1.98975
1.982264
1.982428
1.982699
1.983216
1.983825
1.984667
1.985547
1.98672
1.979083
1.979229
1.979452
1.979975
1.980513
1.9814
1.982288
1.983473
2.011084
2.011233
2.011441
2.011689
2.012017
2.012372
2.012773
2.010973
2.01103
2.011153
2.011375
2.011634
2.011968
2.012339
2.012748
2.010822
2.010912
2.011037
2.011272
2.011537
2.011886
2.012276
2.012709
2.010602
2.010688
2.01082
2.01107
2.011359
2.011735
2.012159
2.012628
2.010325
2.010415
2.010556
2.010824
2.011135
2.011541
2.012004
2.012522
2.009937
2.01003
2.010187
2.010478
2.010824
2.011272
2.011789
2.012366
2.009486
2.009575
2.00975
2.01006
2.010442
2.010933
2.011509
2.012155
2.008896
2.008994
2.009199
2.009533
2.009962
2.010504
2.011156
2.011879
2.008212
2.00832
2.008547
2.008905
2.009379
2.009972
2.010696
2.011498
2.007395
2.007513
2.007762
2.008153
2.008674
2.009326
2.010138
2.011036
2.006448
2.006588
2.006844
2.007271
2.007831
2.008538
2.009421
2.010396
2.005361
2.005506
2.005775
2.006239
2.006838
2.007606
2.008567
2.009648
2.004138
2.004278
2.004566
2.005049
2.005683
2.006495
2.007511
2.008664
2.002707
2.002876
2.003174
2.003685
2.004347
2.005203
2.006268
2.007499
2.001121
2.001315
2.001612
2.002148
2.002826
2.003713
2.004806
2.006084
1.999387
1.999573
1.999877
2.000423
2.001111
2.002017
2.003126
2.004437
1.997484
1.997656
1.997968
1.998512
1.999205
2.000115
2.001222
2.00254
1.995409
1.995567
1.99586
1.996409
1.997092
1.998002
1.999096
2.000408
1.993106
1.99328
1.993599
1.994125
1.994806
1.995694
1.996756
1.998033
1.990691
1.990834
1.991117
1.991644
1.992296
1.99318
1.994207
1.995465
1.988097
1.988226
1.988507
1.989021
1.989653
1.990507
1.991478
1.992677
1.985267
1.985387
1.985649
1.98616
1.986756
1.987624
1.988556
1.989752
1.982316
1.982469
1.982695
1.98322
1.983801
1.984652
1.985524
1.986713
1.979057
1.979249
1.979451
1.979995
1.980524
1.981415
1.982295
1.983473
2.011077
2.01119
2.011432
2.011668
2.011982
2.012373
2.012767
2.010983
2.011029
2.011152
2.011372
2.011629
2.011964
2.01234
2.01274
2.010857
2.01091
2.011034
2.011263
2.01153
2.011874
2.012273
2.012704
2.010626
2.010686
2.010828
2.011068
2.01136
2.011733
2.012159
2.012623
2.010343
2.010411
2.010561
2.010817
2.011134
2.011536
2.012002
2.012517
2.00995
2.010031
2.010198
2.010476
2.010826
2.011269
2.011788
2.01236
2.009465
2.009571
2.009754
2.010056
2.010444
2.01093
2.011508
2.012149
2.008913
2.008999
2.009209
2.009532
2.009966
2.010501
2.011155
2.011871
2.008262
2.008323
2.008564
2.008904
2.009384
2.009969
2.010697
2.011492
2.007451
2.007524
2.007777
2.008154
2.008679
2.009324
2.010138
2.011026
2.006497
2.006596
2.006859
2.007274
2.007837
2.008537
2.009423
2.010392
2.005384
2.005517
2.005789
2.006242
2.006844
2.007604
2.008567
2.009639
2.004158
2.004289
2.004579
2.005052
2.00569
2.006495
2.007513
2.008661
2.002821
2.002913
2.003205
2.003696
2.004357
2.005204
2.00627
2.007494
2.001243
2.00132
2.001648
2.002148
2.002836
2.003713
2.004809
2.006082
1.999481
1.999584
1.999903
2.000423
2.001118
2.002016
2.003126
2.004434
1.997524
1.997659
1.997991
1.998509
1.999215
2.000115
2.001226
2.002539
1.99534
1.995572
1.995855
1.996406
1.997091
1.997997
1.999093
2.000403
1.993281
1.993269
1.993642
1.99412
1.994824
1.995697
1.996766
1.998035
1.990668
1.990814
1.991106
1.991626
1.992286
1.993163
1.994197
1.995452
1.988072
1.988209
1.988519
1.989023
1.98969
1.990525
1.991511
1.992687
1.985272
1.98537
1.985627
1.986124
1.986719
1.987581
1.988527
1.989723
1.98227
1.982462
1.982732
1.983248
1.983908
1.984704
1.985619
1.986738
1.979141
1.979234
1.979417
1.979951
1.980434
1.981345
1.982234
1.98343
2.011067
2.011216
2.011391
2.011604
2.011958
2.012283
2.01262
2.013113
2.010984
2.011029
2.011157
2.011366
2.011632
2.011964
2.012333
2.012737
2.010854
2.010904
2.011033
2.01127
2.011534
2.011876
2.012276
2.012708
2.010638
2.010695
2.010817
2.01107
2.011354
2.011732
2.012154
2.012619
2.010379
2.010425
2.010543
2.010829
2.01113
2.011539
2.012002
2.012516
2.010035
2.010046
2.010179
2.010485
2.010819
2.011271
2.011785
2.012357
2.009617
2.009588
2.009738
2.010068
2.010439
2.010933
2.011507
2.012147
2.009146
2.008992
2.009205
2.009535
2.009963
2.010503
2.011154
2.01187
2.008399
2.008312
2.008563
2.008907
2.009383
2.009972
2.010697
2.011492
2.007605
2.007505
2.007783
2.008156
2.008678
2.009327
2.010138
2.011027
2.006663
2.006614
2.006836
2.007285
2.007833
2.008543
2.009424
2.010395
2.00563
2.005526
2.005759
2.006256
2.006838
2.007611
2.008567
2.009642
2.00449
2.004301
2.004576
2.005067
2.005689
2.006504
2.007515
2.008666
2.003181
2.002907
2.003194
2.003707
2.004353
2.005212
2.006271
2.007498
2.001411
2.001369
2.001605
2.002174
2.00283
2.003724
2.004811
2.006088
1.999807
1.999605
1.999868
2.000446
2.001113
2.002027
2.003128
2.004439
1.997954
1.997692
1.997968
1.998533
1.999213
2.000127
2.001229
2.002545
1.996165
1.995616
1.99583
1.996436
1.997088
1.99801
1.999095
2.000408
1.993594
1.993282
1.993649
1.994141
1.994827
1.995708
1.99677
1.998041
1.991197
1.990901
1.991115
1.991665
1.992288
1.993177
1.9942
1.995456
1.988939
1.988266
1.988546
1.989061
1.989686
1.990534
1.991507
1.992691
1.98619
1.985446
1.985679
1.986164
1.986729
1.987598
1.988527
1.989722
1.983547
1.982623
1.982703
1.983283
1.983858
1.984689
1.985581
1.986727
1.977687
1.979293
1.979397
1.979984
1.980434
1.981352
1.982222
1.983405
2.011059
2.011161
2.011359
2.011529
2.011819
2.012245
2.01252
2.012935
2.010998
2.011031
2.011159
2.011359
2.011612
2.011981
2.012329
2.012706
2.010922
2.010913
2.011032
2.011266
2.011533
2.011869
2.012271
2.012709
2.010684
2.010685
2.010825
2.011068
2.011354
2.011733
2.012154
2.012613
2.010423
2.010434
2.010546
2.010827
2.011131
2.011537
2.012001
2.012513
2.010074
2.01006
2.010187
2.010485
2.010822
2.011271
2.011785
2.012354
2.009682
2.009601
2.009743
2.010068
2.010441
2.010932
2.011508
2.012144
2.009141
2.00901
2.009206
2.009538
2.009966
2.010503
2.011155
2.011866
2.008488
2.008301
2.008571
2.008906
2.009387
2.009972
2.010699
2.011489
2.007838
2.007517
2.007786
2.008161
2.008681
2.009327
2.010139
2.011022
2.006866
2.006621
2.006844
2.007288
2.007836
2.008544
2.009426
2.010394
2.005723
2.005567
2.005763
2.006264
2.006841
2.007612
2.008568
2.009637
2.004441
2.004346
2.004572
2.005073
2.005691
2.006504
2.007517
2.008665
2.003495
2.002988
2.003192
2.003723
2.004355
2.005214
2.006271
2.007494
2.001745
2.001329
2.001635
2.002166
2.002836
2.003722
2.004812
2.006086
2.000237
1.999602
1.999879
2.000445
2.001116
2.002025
2.003128
2.004436
1.998329
1.99771
1.997976
1.998529
1.999217
2.000126
2.00123
2.002543
1.996641
1.995755
1.995818
1.996451
1.997087
1.998008
1.999093
2.000404
1.994186
1.993127
1.993674
1.994116
1.994836
1.995707
1.996774
1.99804
1.991539
1.990861
1.991109
1.991654
1.992281
1.993167
1.994194
1.995448
1.98936
1.988259
1.98852
1.989056
1.989709
1.990542
1.991528
1.992695
1.986575
1.985448
1.985618
1.986148
1.986694
1.987574
1.988509
1.989707
1.983466
1.982609
1.982704
1.983289
1.983956
1.984722
1.98566
1.986745
1.980407
1.979321
1.979347
1.979977
1.980351
1.981318
1.982187
1.983392
2.011043
2.011075
2.011011
2.01104
2.011055
2.011135
2.011075
2.011177
2.01105
2.011176
2.011157
2.011287
2.011193
2.011336
2.011191
2.011312
2.011332
2.011526
2.011357
2.011575
2.011361
2.011544
2.011576
2.01175
2.011594
2.011844
2.011591
2.011811
2.011819
2.012164
2.011885
2.012142
2.011896
2.012126
2.012248
2.012467
2.012186
2.012584
2.012218
2.012558
2.012556
2.01298
2.012608
2.012965
2.012635
2.012949
2.013081
2.012991
2.013045
2.011029
2.01096
2.011013
2.011029
2.010906
2.010928
2.010939
2.010817
2.010893
2.010915
2.010754
2.010769
2.01079
2.0105
2.010722
2.010718
2.010477
2.010511
2.01045
2.010215
2.010445
2.010453
2.010157
2.010187
2.01011
2.00977
2.010101
2.010097
2.009754
2.009782
2.00965
2.009326
2.009689
2.009656
2.009258
2.009304
2.009164
2.008789
2.009193
2.009154
2.008647
2.008724
2.008618
2.008013
2.008569
2.008552
2.007966
2.008014
2.007818
2.007164
2.007857
2.007816
2.007076
2.007126
2.00694
2.006152
2.00695
2.006923
2.006039
2.00611
2.005898
2.004981
2.005886
2.005855
2.00484
2.004923
2.004709
2.003678
2.004663
2.004637
2.003488
2.003524
2.003438
2.002247
2.003323
2.003316
2.00205
2.002184
2.002008
2.000155
2.001825
2.001812
2.000368
2.000455
1.999806
1.998757
2.000206
2.000079
1.998552
1.998702
1.998211
1.997029
1.99837
1.998259
1.99658
1.996685
1.996548
1.994363
1.996374
1.996321
1.994392
1.994459
1.993869
1.99244
1.994231
1.994172
1.991913
1.992101
1.991859
1.989483
1.991621
1.991644
1.989289
1.989544
1.988826
1.987199
1.988933
1.988914
1.986603
1.986883
1.98647
1.984011
1.986302
1.986269
1.983696
1.983941
1.98336
1.981289
1.98336
1.983245
1.980857
1.981105
1.980495
1.977594
1.980521
1.980327
1.977667
1.977733
2.01109
2.010991
2.011044
2.011098
2.010992
2.011032
2.011074
2.011002
2.01104
2.011092
2.010983
2.011032
2.011079
2.010992
2.011038
2.011089
2.010981
2.011033
2.011076
2.01099
2.011035
2.011087
2.010979
2.011033
2.011082
2.010983
2.011034
2.011082
2.010977
2.011031
2.011087
2.010976
2.01103
2.011073
2.01098
2.011033
2.011082
2.010986
2.011025
2.011064
2.01098
2.011031
2.011088
2.010986
2.011027
2.011064
2.010982
2.011024
2.011055
2.010997
2.011032
2.011026
2.011137
2.011046
2.011146
2.011045
2.011096
2.01132
2.011171
2.011297
2.011123
2.011253
2.011494
2.011346
2.011518
2.011291
2.011532
2.011918
2.011585
2.011781
2.011591
2.011736
2.012182
2.011876
2.012122
2.011799
2.01205
2.012469
2.012194
2.012534
2.012085
2.012622
2.013055
2.012964
2.010884
2.010677
2.010754
2.010903
2.010812
2.010708
2.010471
2.010506
2.010764
2.010562
2.010433
2.010146
2.010172
2.010522
2.010152
2.010068
2.009765
2.009798
2.010083
2.00982
2.008496
2.007939
2.008006
2.008542
2.008069
2.007757
2.007032
2.007096
2.007858
2.007282
2.00684
2.005984
2.006062
2.007122
2.005856
2.005732
2.005006
2.004984
2.005628
2.005012
2.00456
2.003659
2.003697
2.004716
2.003666
2.003261
2.001746
2.002171
2.003383
2.002614
2.001756
2.000374
2.000538
2.00243
2.000203
2.000112
1.99861
1.998741
1.999911
1.999003
1.998325
1.996924
1.996645
1.99865
1.996255
1.996161
1.993459
1.994563
1.995879
1.99465
1.993973
1.991866
1.992363
1.994251
1.992734
1.991745
1.989644
1.98979
1.992312
1.989402
1.989207
1.986809
1.986989
1.988832
1.987374
1.986629
1.983869
1.983924
1.986729
1.983934
1.983304
1.980772
1.98091
1.983313
1.981172
1.980229
1.977422
1.977654
1.98041
1.977939
2.011042
2.01104
2.01112
2.011065
2.011064
2.01112
2.011255
2.011154
2.01115
2.01125
2.011441
2.011305
2.011296
2.01144
2.011732
2.011526
2.011512
2.01172
2.012047
2.011812
2.011797
2.012039
2.012422
2.012149
2.012124
2.012407
2.01282
2.012522
2.012503
2.012814
2.012953
2.012936
2.010966
2.011021
2.011022
2.010966
2.010833
2.010935
2.010933
2.010838
2.010622
2.010771
2.010777
2.010624
2.010298
2.01052
2.010536
2.01031
2.009953
2.010196
2.010202
2.009946
2.00946
2.009763
2.009779
2.009477
2.008908
2.009275
2.009296
2.008935
2.008245
2.008687
2.008716
2.008271
2.007437
2.007946
2.007991
2.007462
2.006478
2.007069
2.007118
2.006505
2.00536
2.006031
2.006086
2.005385
2.004086
2.004851
2.004908
2.004118
2.002637
2.003539
2.003584
2.002691
2.001067
2.002038
2.002075
2.00107
1.999241
2.000328
2.000419
1.999251
1.997447
1.998619
1.998683
1.997431
1.995352
1.996697
1.99674
1.995327
1.993135
1.994539
1.994586
1.993017
1.990589
1.992307
1.992403
1.990538
1.98795
1.989687
1.989782
1.987838
1.985139
1.987053
1.987181
1.98508
1.98209
1.98404
1.984154
1.982044
1.979196
1.980921
1.980958
1.979031
2.011036
2.011043
2.011035
2.011038
2.011037
2.011037
2.011038
2.01104
2.011038
2.011038
2.011036
2.011033
2.011033
2.011024
2.011041
2.011016
2.011024
2.011026
2.013097
2.01264
2.012908
2.012681
2.012898
2.011015
2.010928
2.010909
2.01101
2.01094
2.009657
2.009254
2.009324
2.009766
2.009162
2.009111
2.008704
2.008726
2.009065
2.008741
2.011041
2.011088
2.011081
2.011041
2.011043
2.010998
2.011002
2.011043
2.01104
2.011042
2.011104
2.011169
2.011176
2.011106
2.011245
2.011327
2.01134
2.011237
2.011414
2.011579
2.011596
2.011414
2.0117
2.011861
2.011869
2.011682
2.012021
2.012231
2.012237
2.011988
2.012337
2.012617
2.012625
2.012333
2.012779
2.013054
2.01307
2.012756
2.010986
2.010918
2.01091
2.010983
2.010845
2.010756
2.01075
2.010852
2.010616
2.010464
2.010451
2.010637
2.010342
2.010129
2.010116
2.010355
2.009997
2.009684
2.009658
2.009988
2.009546
2.009193
2.009176
2.009544
2.009017
2.008592
2.008574
2.009015
2.008324
2.007841
2.007825
2.008339
2.007537
2.006944
2.006912
2.007537
2.006585
2.005893
2.005856
2.006584
2.005473
2.004688
2.00464
2.005474
2.004226
2.003335
2.003276
2.004228
2.002807
2.001819
2.001762
2.002834
2.001179
1.999986
1.999894
2.001162
1.999567
1.998241
1.998158
1.999523
1.997755
1.996262
1.996136
1.997717
1.995565
1.993981
1.993823
1.995564
1.9935
1.991719
1.991454
1.993407
1.990893
1.98908
1.988878
1.990842
1.988393
1.986399
1.986136
1.988305
1.985444
1.98339
1.983171
1.985427
1.98247
1.980312
1.98012
1.982483
1.979458
1.976982
1.979306
1.97667
2.011041
2.011031
2.011035
2.011037
2.011037
2.011037
2.011038
2.011037
2.011035
2.011037
2.011033
2.011039
2.011023
2.011039
2.011019
2.011035
2.01102
2.011023
2.011027
2.010989
2.010992
2.011029
2.011067
2.011048
2.011042
2.011088
2.011038
2.01108
2.01105
2.011166
2.01114
2.011086
2.011201
2.011069
2.011267
2.011139
2.011118
2.011247
2.011152
2.011269
2.011253
2.011325
2.011327
2.011255
2.011431
2.011307
2.01131
2.011429
2.01142
2.011538
2.011524
2.01142
2.011606
2.011507
2.011494
2.011668
2.011527
2.011894
2.01183
2.011613
2.011924
2.011614
2.01216
2.011806
2.011799
2.01207
2.011779
2.012073
2.012065
2.012208
2.012222
2.011986
2.010878
2.010923
2.01093
2.010836
2.010904
2.010701
2.010704
2.01085
2.010643
2.010863
2.010567
2.010739
2.010709
2.010588
2.010593
2.010471
2.010457
2.010621
2.010292
2.010512
2.010522
2.010314
2.010295
2.010147
2.010113
2.010329
2.008276
2.008497
2.008742
2.008471
2.007986
2.0082
2.007812
2.007869
2.00806
2.007371
2.007858
2.007916
2.00741
2.007466
2.006919
2.006907
2.0075
2.006371
2.007024
2.007062
2.006439
2.005432
2.005978
2.005908
2.005603
2.005333
2.004962
2.004505
2.005028
2.005606
2.000844
2.002217
2.001901
2.000891
2.000801
2.000023
2.000019
2.000928
1.999239
2.000269
2.000331
1.999289
1.99766
1.998622
1.998623
1.997506
1.997685
1.996454
1.996496
1.997589
1.995894
1.996699
1.996806
1.995409
1.996469
1.993793
1.994184
1.996017
1.993838
1.995811
1.991979
1.994374
1.99448
1.99472
1.992667
1.992685
1.992675
1.991717
1.991601
1.9932
1.990428
1.991979
1.99197
1.990518
1.990467
1.9891
1.989055
1.990724
1.988061
1.989587
1.989635
1.987976
1.982504
1.980461
1.980294
1.98251
1.979105
1.98114
1.981287
1.978975
1.979406
1.977208
1.979368
1.976946
1.976042
1.976113
1.976776
1.977199
1.978255
1.978978
1.980571
1.975031
1.976072
1.976143
1.976787
1.977217
1.978224
1.978969
1.980511
1.975819
1.975973
1.976166
1.976725
1.977215
1.978213
1.97895
1.980535
1.975855
1.976026
1.976205
1.976764
1.977278
1.978233
1.979021
1.980553
1.975807
1.975969
1.976187
1.976717
1.977246
1.9782
1.97898
1.980543
1.975824
1.976001
1.976239
1.976763
1.977348
1.978252
1.979084
1.98057
1.975773
1.975998
1.976178
1.976737
1.977271
1.978209
1.979018
1.980539
1.975711
1.976012
1.976264
1.976792
1.977476
1.978288
1.979202
1.98057
1.974707
1.97609
1.97609
1.97678
1.977329
1.978229
1.979098
1.980499
1.976981
1.976145
1.976226
1.976819
1.977601
1.978328
1.979307
1.980569
1.976798
1.974826
1.977314
1.977024
1.973462
1.974592
1.976861
1.973969
1.97439
1.977226
1.974383
1.975703
1.977721
1.975633
1.977824
1.97624
1.97375
1.973517
1.976138
1.975733
1.977873
1.97565
1.97799
1.976009
1.973762
1.97355
1.976032
2.011041
2.011041
2.011038
2.011045
2.011032
2.011041
2.011037
2.011036
2.011038
2.011037
2.011037
2.011035
2.011035
2.011034
2.011032
2.011029
2.011031
2.011027
2.011027
2.011024
2.011042
2.011038
2.011041
2.01103
2.011036
2.011037
2.011036
2.011038
2.011035
2.011038
2.011034
2.011035
2.011031
2.011034
2.01103
2.011032
2.011024
2.011032
2.011024
2.011024
2.011022
2.011051
2.011042
2.011025
2.010999
2.010966
2.010994
2.011026
2.011304
2.011417
2.011323
2.011217
2.011353
2.011203
2.011374
2.011337
2.011508
2.011698
2.011413
2.011517
2.011561
2.011415
2.011657
2.011534
2.01238
2.01217
2.012181
2.012373
2.012378
2.012566
2.012546
2.012369
2.012944
2.012928
2.012896
2.01089
2.010979
2.010905
2.01086
2.01051
2.010329
2.010496
2.010612
2.009963
2.010179
2.01015
2.010048
2.009936
2.009784
2.009759
2.009768
2.010034
2.007878
2.007475
2.007839
2.00826
2.007716
2.008306
2.007565
2.007757
2.0071
2.006506
2.007395
2.007038
2.00686
2.007521
2.006633
2.006918
2.006356
2.005916
2.005847
2.006456
2.005887
2.006344
2.00532
2.005927
2.004545
2.004791
2.004685
2.004878
2.004465
2.004177
2.004468
2.003643
2.003511
2.004271
2.003473
2.004099
2.003197
2.003509
2.003448
2.00289
2.003355
2.001878
2.001835
2.002978
2.001414
2.003055
2.001586
2.002595
2.001879
2.001989
2.000305
1.999239
2.000201
2.000908
1.999986
2.001117
1.99929
2.000083
1.999563
1.998317
1.998294
1.999559
1.998245
1.999627
1.99787
1.998383
1.996781
1.995276
1.996671
1.997301
1.996281
1.997342
1.995599
1.996516
1.989612
1.987863
1.98946
1.9905
1.989107
1.990689
1.988018
1.989286
1.98847
1.986425
1.986177
1.988391
1.985235
1.987138
1.987267
1.985164
1.985509
1.983495
1.983299
1.985467
1.982133
1.984173
1.984372
1.982091
1.981089
1.979089
1.980875
1.98226
1.975728
1.977623
1.977872
1.979028
2.01104
2.011041
2.011043
2.011034
2.011039
2.011034
2.011035
2.011038
2.011035
2.011038
2.011035
2.011035
2.011033
2.011034
2.011029
2.01103
2.011024
2.011032
2.011023
2.011027
2.012517
2.012499
2.012766
2.012674
2.013054
2.012981
2.013063
2.012674
2.012532
2.012634
2.011007
2.011007
2.010958
2.01096
2.010912
2.01092
2.010966
2.010972
2.009714
2.009864
2.009752
2.009323
2.009596
2.011039
2.01104
2.011033
2.011045
2.011036
2.011036
2.011039
2.011035
2.011038
2.011036
2.011035
2.011035
2.011035
2.011032
2.011032
2.011028
2.01103
2.011022
2.011026
2.011023
2.011026
2.011053
2.011022
2.011027
2.011022
2.010997
2.011027
2.011021
2.011013
2.011031
2.011017
2.011011
2.011291
2.011186
2.011247
2.011295
2.011401
2.01147
2.01128
2.011413
2.011456
2.011364
2.011529
2.011446
2.011593
2.011734
2.011553
2.011661
2.01087
2.010797
2.010911
2.010833
2.010626
2.010548
2.010789
2.010604
2.01057
2.010688
2.010583
2.01051
2.008265
2.008126
2.008566
2.008192
2.008008
2.008546
2.008036
2.007933
2.00754
2.007232
2.007904
2.007496
2.007349
2.007705
2.007081
2.007395
2.006607
2.006226
2.00701
2.006548
2.001204
2.000729
2.002408
2.001025
1.99958
1.998832
2.00002
1.999477
1.997809
1.997166
1.998628
1.997683
1.997251
1.997919
1.997361
1.996538
1.996016
1.994994
1.996298
1.995514
1.988446
1.987351
1.989013
1.988266
1.981908
1.983064
1.982093
1.981266
1.979606
1.978383
1.980424
1.97938
1.978738
1.979906
1.978947
1.978011
1.974492
1.972167
1.974252
1.975558
1.973661
1.973849
1.974181
1.973681
1.972409
1.974368
1.974461
1.972321
1.973461
1.973509
1.974506
1.974585
1.972269
1.972421
2.01109
2.01104
2.011082
2.011077
2.011191
2.011097
2.01118
2.011195
2.011344
2.011212
2.011333
2.011419
2.0116
2.011418
2.011576
2.011649
2.011897
2.011656
2.011867
2.011913
2.012228
2.011984
2.012203
2.012385
2.012632
2.012317
2.012598
2.012707
2.013037
2.012757
2.013013
2.013235
2.010996
2.011047
2.011005
2.011008
2.010895
2.010991
2.010909
2.010893
2.010721
2.010876
2.010738
2.0107
2.010458
2.01064
2.010475
2.010339
2.010124
2.010359
2.010143
2.009954
2.009683
2.009975
2.009706
2.00947
2.009183
2.009542
2.009211
2.008946
2.008573
2.009025
2.008612
2.008326
2.007815
2.008335
2.007859
2.007499
2.006918
2.007524
2.006972
2.006553
2.005857
2.006557
2.005922