/*--------------------------------*- C++ -*----------------------------------*\
  =========                 |
  \\      /  F ield         | OpenFOAM: The Open Source CFD Toolbox
   \\    /   O peration     | Website:  https://openfoam.org
    \\  /    A nd           | Version:  7
     \\/     M anipulation  |
\*---------------------------------------------------------------------------*/
FoamFile
{
    version     2.0;
    format      ascii;
    class       volVectorField;
    location    "0.09";
    object      U;
}
// * * * * * * * * * * * * * * * * * * * * * * * * * * * * * * * * * * * * * //

dimensions      [0 1 -1 0 0 0 0];

internalField   nonuniform List<vector> 
80136
(
(0.0003194175 -0.0003105935 1.055697e-06)
(0.0005007786 -0.0003039861 -1.618989e-08)
(0.0006907279 -0.0002730516 -2.337187e-06)
(0.0008599519 -0.0002511128 -2.21708e-06)
(0.001010389 -0.000210757 -2.917111e-06)
(0.001132149 -0.0001671167 1.851674e-07)
(0.001221315 -0.0001116103 -2.430184e-07)
(0.0003432351 -0.0005006954 -1.682361e-06)
(0.0005259161 -0.0004793676 3.663479e-07)
(0.0007296938 -0.0004478968 -7.647331e-06)
(0.0009089144 -0.0004007758 -4.203086e-06)
(0.001069934 -0.0003438286 -3.885068e-06)
(0.001204838 -0.0002726033 -2.217844e-06)
(0.001306587 -0.0001858593 -1.55412e-06)
(0.0003512163 -0.0007192312 1.338976e-06)
(0.0005627874 -0.0006927507 7.250529e-06)
(0.0007760805 -0.0006462293 -1.049113e-06)
(0.0009719526 -0.0005834026 2.057263e-06)
(0.0011503 -0.0005002706 8.179005e-07)
(0.001301611 -0.0003997432 1.680778e-06)
(0.001421418 -0.0002776725 9.627217e-07)
(0.00037632 -0.0009454563 -6.688727e-06)
(0.0006064171 -0.0009160435 5.127721e-06)
(0.000838795 -0.0008574587 -4.506249e-06)
(0.001054536 -0.00077721 -1.694182e-07)
(0.001253587 -0.0006732439 -9.877701e-07)
(0.001427655 -0.0005451324 1.300985e-07)
(0.001571123 -0.0003890819 -1.046638e-07)
(0.0004062139 -0.001197302 -7.214987e-06)
(0.0006597199 -0.001164777 7.308112e-06)
(0.0009145641 -0.001093641 -4.143721e-06)
(0.001155942 -0.0009986676 5.680639e-07)
(0.001382448 -0.0008736136 -5.877629e-07)
(0.001586063 -0.0007188706 5.624478e-07)
(0.001761075 -0.0005287527 2.029809e-07)
(0.00044533 -0.001466603 -8.293871e-06)
(0.0007222344 -0.001437429 7.107881e-06)
(0.001004609 -0.001353513 -5.095249e-06)
(0.001274235 -0.001246761 1.347993e-07)
(0.001533275 -0.001103833 -1.021528e-06)
(0.001772557 -0.0009262716 3.245874e-07)
(0.001987453 -0.00070506 1.523638e-08)
(0.000497277 -0.001766958 2.505664e-06)
(0.0007871665 -0.001736998 6.302219e-06)
(0.001104978 -0.001645271 -4.346435e-06)
(0.001405219 -0.001529229 2.448325e-07)
(0.001702705 -0.001372276 -8.95756e-07)
(0.001984689 -0.001175983 3.788936e-07)
(0.002247169 -0.0009279324 -3.396813e-09)
(0.0005447109 -0.002093152 3.808938e-06)
(0.0008611214 -0.002062325 4.94296e-06)
(0.001212136 -0.001969467 -4.554925e-06)
(0.001546777 -0.00184789 1.982508e-08)
(0.001886226 -0.001683115 -9.426172e-07)
(0.002216674 -0.001475419 3.640656e-07)
(0.002536147 -0.001209004 5.780935e-08)
(0.0005864108 -0.002446216 8.47223e-06)
(0.0009325756 -0.002420542 5.31984e-06)
(0.001319169 -0.002328982 -4.233125e-06)
(0.001691092 -0.002207288 4.401153e-08)
(0.002074868 -0.002041511 -9.399865e-07)
(0.00245856 -0.001830708 3.434169e-07)
(0.002838238 -0.001557624 -2.312185e-07)
(0.0006307571 -0.002832308 1.075626e-05)
(0.001003241 -0.002812067 4.648381e-06)
(0.001425156 -0.002725298 -4.410864e-06)
(0.001833764 -0.002608202 -8.409668e-08)
(0.002262484 -0.002449331 -9.11573e-07)
(0.002700355 -0.002245523 5.234689e-07)
(0.003146364 -0.001981678 2.921313e-07)
(0.0006709645 -0.003246539 1.352557e-05)
(0.001068529 -0.003232682 5.47251e-06)
(0.001522809 -0.003156364 -4.579285e-06)
(0.001966595 -0.003049491 -8.820728e-08)
(0.002437237 -0.002906253 -1.046599e-06)
(0.002926017 -0.002720986 3.724147e-07)
(0.003434069 -0.002484223 2.119788e-08)
(0.0007064695 -0.003689545 1.143575e-05)
(0.001127115 -0.003683738 7.457858e-06)
(0.001608151 -0.003620066 -5.173222e-06)
(0.002083453 -0.00352779 -2.540798e-08)
(0.002590704 -0.003406704 -1.090645e-06)
(0.0031222 -0.003249461 3.936586e-07)
(0.00368628 -0.003052025 3.85342e-07)
(0.0007390414 -0.004154661 3.806842e-06)
(0.00117645 -0.004154506 8.120008e-06)
(0.001678603 -0.004109214 -6.359263e-06)
(0.002179594 -0.004036163 -1.228849e-07)
(0.002715328 -0.003942887 -1.321633e-06)
(0.00328054 -0.003821771 2.23079e-07)
(0.00388686 -0.003672105 4.440644e-08)
(0.0007347529 -0.004631387 -3.089471e-06)
(0.001216612 -0.004649848 1.138574e-05)
(0.001726393 -0.004619098 -6.8024e-06)
(0.002249494 -0.00456882 4.37385e-08)
(0.002804915 -0.004506114 -1.390878e-06)
(0.003392868 -0.00442599 1.158367e-07)
(0.004028304 -0.00433026 8.995511e-08)
(0.0007485985 -0.005116983 -1.25853e-05)
(0.001240671 -0.005166782 9.97209e-06)
(0.001759621 -0.005140656 -8.184923e-06)
(0.002292377 -0.005116586 -2.230801e-07)
(0.002858032 -0.005084907 -1.654169e-06)
(0.003456319 -0.005048002 2.52107e-09)
(0.004105076 -0.005007972 -1.608835e-07)
(0.0007903093 -0.005619914 1.828302e-05)
(0.001244511 -0.005677667 9.121332e-06)
(0.001776683 -0.005669854 -5.894054e-06)
(0.002305136 -0.005668838 -1.747553e-07)
(0.002873433 -0.005669726 -1.537729e-06)
(0.003469764 -0.005675762 -2.206716e-07)
(0.004117573 -0.005691933 -2.245605e-07)
(0.0007805081 -0.006118161 3.875124e-06)
(0.001247883 -0.006180696 7.895458e-06)
(0.001768608 -0.00619788 -7.091791e-06)
(0.002292478 -0.006215995 -4.338858e-07)
(0.002851109 -0.006247909 -1.74021e-06)
(0.003434106 -0.006292677 -1.992463e-07)
(0.004065331 -0.006361833 -4.403756e-07)
(0.0007610117 -0.006605675 -7.895481e-07)
(0.001233377 -0.006683655 6.618802e-06)
(0.001741576 -0.006715108 -8.018002e-06)
(0.002255153 -0.006753287 -9.950244e-07)
(0.00279679 -0.006812087 -2.160199e-06)
(0.003355868 -0.006891859 -9.294844e-07)
(0.003956248 -0.007008872 -8.556883e-07)
(0.0007400078 -0.007081306 -9.130302e-07)
(0.001206339 -0.007175262 6.975965e-06)
(0.001699198 -0.007218969 -7.864324e-06)
(0.002195617 -0.007269276 -6.873634e-07)
(0.002712619 -0.007347183 -2.106352e-06)
(0.003237363 -0.007447782 -2.79119e-07)
(0.00379242 -0.007601934 -9.205326e-07)
(0.0007095425 -0.007551977 -6.598047e-06)
(0.001173601 -0.007654402 4.984388e-06)
(0.001647806 -0.007706726 -9.549035e-06)
(0.002127084 -0.007767166 -2.578058e-06)
(0.002618398 -0.007856601 -3.832177e-06)
(0.003101149 -0.007973777 -3.731916e-06)
(0.003598375 -0.008147811 -2.960311e-06)
(0.0006873508 -0.007999461 -5.936691e-06)
(0.001129949 -0.008114158 4.141826e-06)
(0.001586693 -0.008173832 -8.836927e-06)
(0.002045897 -0.008229502 -5.784691e-07)
(0.002506115 -0.008320239 -2.74254e-06)
(0.002946175 -0.008411475 1.459128e-06)
(0.003375791 -0.008589381 -2.047386e-06)
(0.0006479817 -0.008441929 -1.559007e-05)
(0.001086058 -0.008556739 3.795319e-06)
(0.001532648 -0.008626282 -1.260419e-05)
(0.001980778 -0.008686669 -8.544875e-06)
(0.002436414 -0.008760423 -9.748426e-06)
(0.002831969 -0.008851789 -1.83446e-05)
(0.003194254 -0.008956956 -1.077595e-05)
(0.0005887554 -0.008863918 -2.202634e-05)
(0.001035668 -0.008995682 1.069535e-05)
(0.001456925 -0.00907079 -9.43978e-06)
(0.001911739 -0.009104167 3.786834e-06)
(0.002340829 -0.009174497 -4.254984e-06)
(0.002749439 -0.009113946 1.918076e-05)
(0.00306401 -0.009196526 -6.905108e-06)
(0.0002824865 -3.122496e-05 2.205325e-05)
(0.0004805723 -1.9922e-05 5.416691e-05)
(0.0008078245 -3.953039e-05 2.498371e-05)
(0.001007011 -4.021868e-05 7.265196e-05)
(0.001181839 -8.932802e-06 4.994872e-05)
(0.00140147 -4.252114e-05 7.353201e-05)
(0.001556743 -7.776018e-06 5.429362e-05)
(0.001628995 -2.334624e-05 8.397541e-05)
(3.762047e-05 -0.000283263 -2.208291e-05)
(0.0003248525 -0.0003173314 4.880801e-08)
(0.0005167671 -0.0002937133 1.258588e-06)
(0.0006982402 -0.0002605988 -4.416196e-06)
(0.0008672998 -0.0002379266 -9.062904e-08)
(0.00102191 -0.0002033168 -3.877905e-06)
(0.001143384 -0.0001629205 -2.936773e-06)
(0.001233772 -0.0001091008 -2.341019e-06)
(1.850129e-05 -0.0004771755 -6.558304e-05)
(0.0003299929 -0.000521722 7.929148e-07)
(0.0005378755 -0.0004890498 1.746972e-06)
(0.0007291193 -0.0004597578 -4.066878e-06)
(0.0009128841 -0.0004094847 -1.97446e-06)
(0.001071562 -0.0003504951 -3.643306e-06)
(0.0012064 -0.0002795143 -2.382832e-06)
(0.001307337 -0.0001903435 -1.723388e-06)
(3.491032e-05 -0.0008204238 -3.5274e-05)
(0.000340477 -0.0007369574 6.543063e-06)
(0.0005767283 -0.0006932926 6.41193e-06)
(0.0007755899 -0.0006469298 1.122683e-06)
(0.0009749216 -0.0005825489 1.748803e-06)
(0.001150626 -0.0005000298 -2.843569e-07)
(0.001302412 -0.0003994552 2.747189e-08)
(0.001421808 -0.0002774688 -3.228255e-07)
(5.544244e-05 -0.001180781 -5.557976e-05)
(0.0003633965 -0.000968217 4.588686e-06)
(0.0006256988 -0.0009183373 4.810117e-06)
(0.0008384227 -0.000861775 1.068509e-06)
(0.001059187 -0.0007796586 1.487238e-06)
(0.001254749 -0.000675335 -1.661176e-07)
(0.001429455 -0.000546694 3.259774e-07)
(0.001572887 -0.0003900052 -1.443178e-07)
(6.125175e-05 -0.001536002 -5.576713e-05)
(0.0003822052 -0.001217534 7.14352e-06)
(0.0006811441 -0.001165291 7.47743e-06)
(0.0009131257 -0.001095559 2.918078e-06)
(0.00116072 -0.0009994383 3.131824e-06)
(0.00138348 -0.0008743875 1.16153e-06)
(0.001587959 -0.0007191359 1.50496e-06)
(0.001763203 -0.0005287462 6.472215e-07)
(8.443688e-05 -0.001815797 -0.0001251449)
(0.0004202319 -0.001480612 6.317719e-06)
(0.0007457389 -0.001441098 7.143727e-06)
(0.001003321 -0.001355406 2.948028e-06)
(0.001279651 -0.001248467 3.341951e-06)
(0.001534695 -0.001105199 1.325926e-06)
(0.001774933 -0.0009270743 1.823347e-06)
(0.001990416 -0.00070537 8.011926e-07)
(7.618155e-05 -0.002227069 -0.0001025077)
(0.0004873366 -0.001782353 4.549754e-06)
(0.0008042542 -0.001742195 9.42138e-06)
(0.001104855 -0.001646805 3.172826e-06)
(0.001410151 -0.001531095 4.160492e-06)
(0.001704309 -0.001373668 1.750612e-06)
(0.001987292 -0.001176789 2.368704e-06)
(0.002250504 -0.0009281437 1.250204e-06)
(6.672303e-05 -0.002650321 -0.0001077851)
(0.0005459443 -0.002118332 4.541148e-06)
(0.0008789982 -0.002066839 1.007304e-05)
(0.001213539 -0.001971757 3.1569e-06)
(0.001551958 -0.001850206 4.513787e-06)
(0.001888293 -0.001684999 1.827653e-06)
(0.002219741 -0.001476773 2.681152e-06)
(0.002540369 -0.001209701 1.448596e-06)
(9.523354e-05 -0.003177484 -0.0001145787)
(0.0005866256 -0.002474662 3.894514e-06)
(0.0009480426 -0.00242472 1.099631e-05)
(0.001320622 -0.002331619 3.040643e-06)
(0.001696042 -0.002209908 4.839769e-06)
(0.00207696 -0.002043747 1.798423e-06)
(0.002461759 -0.001832514 2.609027e-06)
(0.002842341 -0.001558479 1.01092e-06)
(9.870369e-05 -0.003693957 -0.0001331403)
(0.000637904 -0.002868066 2.649349e-06)
(0.001018945 -0.002816154 1.174442e-05)
(0.001427513 -0.002728777 2.823856e-06)
(0.001838973 -0.002611242 5.07712e-06)
(0.002264893 -0.002452136 1.822874e-06)
(0.002704158 -0.002247955 2.795638e-06)
(0.003151437 -0.001983426 1.729401e-06)
(0.0001002575 -0.004211481 -0.0001626596)
(0.0006744887 -0.003291561 2.3732e-06)
(0.001083784 -0.003234526 1.249135e-05)
(0.001524747 -0.003160595 2.794267e-06)
(0.00197187 -0.003052744 5.184799e-06)
(0.002439492 -0.002909576 1.552591e-06)
(0.002929685 -0.002724048 2.276608e-06)
(0.003438403 -0.002486837 7.677759e-08)
(8.115391e-05 -0.00469893 -0.000191806)
(0.0006944375 -0.003749584 2.832367e-06)
(0.001145899 -0.003686025 1.263869e-05)
(0.001608615 -0.003625643 2.876673e-06)
(0.002089267 -0.00353154 5.200709e-06)
(0.002592923 -0.003410561 1.529946e-06)
(0.00312623 -0.003253006 2.179872e-06)
(0.003690979 -0.00305525 6.454027e-07)
(7.016767e-05 -0.005278841 -0.0001923853)
(0.000718875 -0.004220662 3.210498e-06)
(0.00120318 -0.00415595 1.306497e-05)
(0.001678676 -0.004115007 3.318277e-06)
(0.002186339 -0.004040217 5.270168e-06)
(0.002717487 -0.003947202 1.49875e-06)
(0.00328447 -0.003825919 1.891432e-06)
(0.003890987 -0.003676143 6.485551e-08)
(8.105072e-05 -0.005917167 -0.0002350578)
(0.0006915518 -0.004706654 1.08713e-05)
(0.00124676 -0.004653466 1.292158e-05)
(0.001723945 -0.004625436 3.995216e-06)
(0.0022566 -0.004573432 5.248692e-06)
(0.002806818 -0.004510884 1.430673e-06)
(0.003396907 -0.004430566 1.734999e-06)
(0.004032426 -0.00433476 9.903829e-08)
(0.0002080601 -0.006550722 -0.0003615006)
(0.0007151949 -0.005164595 9.92981e-06)
(0.001278857 -0.005174077 1.202949e-05)
(0.001758459 -0.005144772 4.209879e-06)
(0.002300568 -0.005121739 5.267679e-06)
(0.002860083 -0.005089953 1.508674e-06)
(0.003460351 -0.005053197 1.614729e-06)
(0.004108945 -0.005013148 1.132321e-07)
(0.000126755 -0.007300232 -0.0002481338)
(0.0007781705 -0.005676623 5.478584e-06)
(0.001260705 -0.005685115 1.54132e-05)
(0.001776147 -0.005674186 3.645328e-06)
(0.00231128 -0.005674421 5.510351e-06)
(0.002875218 -0.005675196 1.243836e-06)
(0.003473592 -0.00568137 1.481147e-06)
(0.004121295 -0.005697677 -1.205157e-07)
(-6.218938e-05 -0.007578544 -0.0002793094)
(0.0007677629 -0.00621477 1.154874e-05)
(0.001274942 -0.006189071 1.540397e-05)
(0.001769185 -0.006205638 4.532018e-06)
(0.002299559 -0.006222563 5.639988e-06)
(0.002853123 -0.006254358 1.46181e-06)
(0.00343786 -0.006299291 1.447091e-06)
(0.004068843 -0.006368489 3.62994e-08)
(0.0001647093 -0.008625973 -0.0003240624)
(0.0007592885 -0.006690185 1.423796e-05)
(0.00126279 -0.006690552 1.417531e-05)
(0.001742854 -0.006721944 4.644101e-06)
(0.002262677 -0.006759748 5.118336e-06)
(0.002798601 -0.006818769 1.029926e-06)
(0.003359534 -0.006898419 9.633698e-07)
(0.003959608 -0.007016046 -3.902259e-07)
(-3.111762e-05 -0.008995197 -0.0003653707)
(0.0007297973 -0.007178156 1.435755e-05)
(0.001235747 -0.007183128 1.332352e-05)
(0.001700301 -0.007226929 5.029666e-06)
(0.002202978 -0.007277389 5.306054e-06)
(0.002714662 -0.007355501 1.522954e-06)
(0.003240717 -0.007457289 1.46618e-06)
(0.003795155 -0.007611164 -3.261589e-08)
(0.000150027 -0.009998666 -0.0003901089)
(0.0007089762 -0.007649053 1.553478e-05)
(0.001205626 -0.007663638 1.048228e-05)
(0.001648978 -0.007714512 4.410198e-06)
(0.002134428 -0.007774074 3.450737e-06)
(0.002618976 -0.007864328 4.651551e-07)
(0.003104046 -0.00797957 -7.514919e-07)
(0.00360152 -0.00815669 -6.231451e-07)
(-9.671656e-06 -0.0103599 -0.0004203928)
(0.0007026195 -0.008108709 1.493234e-05)
(0.001161823 -0.008122149 1.080155e-05)
(0.001590305 -0.008184014 5.721852e-06)
(0.002053529 -0.008242475 5.691828e-06)
(0.002509459 -0.008333265 2.109274e-06)
(0.002948532 -0.008432502 3.717058e-06)
(0.003375907 -0.008605497 -2.20044e-07)
(0.0001084511 -0.0114197 -0.0003692745)
(0.0006289196 -0.008556306 1.379713e-05)
(0.001120883 -0.008557856 6.16072e-06)
(0.001529065 -0.008634478 3.93544e-06)
(0.001985513 -0.008690351 -6.365905e-07)
(0.002429175 -0.008769581 1.353412e-07)
(0.002831905 -0.008843677 -8.526311e-06)
(0.00320019 -0.008970305 2.304262e-07)
(0.001664961 -0.01174498 5.859899e-05)
(0.0005358442 -0.008990195 2.165134e-05)
(0.001073899 -0.009010043 8.430832e-06)
(0.0014582 -0.009086328 7.955604e-06)
(0.00191866 -0.009134788 1.043787e-05)
(0.002356229 -0.009202688 3.996244e-06)
(0.002747876 -0.009197548 2.135671e-05)
(0.003046354 -0.009235986 -4.234218e-06)
(0.0002694886 -2.931354e-05 -1.935089e-05)
(0.0005427375 -9.021688e-05 9.055654e-06)
(0.0006644991 -7.196509e-05 -2.298823e-05)
(0.0008507718 -8.026207e-05 2.414109e-06)
(0.0009817381 -6.434597e-05 -1.15591e-05)
(0.001103657 -5.221649e-05 -8.895561e-06)
(0.001188375 -3.490383e-05 -6.087661e-06)
(2.986848e-05 -0.0002705882 2.039693e-05)
(0.000302697 -0.0002926403 -5.914244e-07)
(0.0004997813 -0.0002912683 -1.193549e-05)
(0.0006975729 -0.0002421148 -1.644704e-05)
(0.0008705959 -0.0002321889 -1.18156e-05)
(0.001021257 -0.0001927827 -1.262791e-05)
(0.00114721 -0.0001533468 -1.162938e-05)
(0.001238447 -0.0001034997 -7.964008e-06)
(0.0001000172 -0.0005484356 -7.659538e-06)
(0.0003257558 -0.0004967573 1.633816e-05)
(0.0005186203 -0.0004718127 1.433777e-06)
(0.000725146 -0.0004396055 -1.998792e-06)
(0.0009095112 -0.0003966144 -2.706148e-06)
(0.001070051 -0.0003382049 -4.3012e-06)
(0.001207425 -0.0002678883 -3.081955e-06)
(0.001309715 -0.0001824728 -2.185493e-06)
(0.0001000792 -0.0007149926 2.737765e-05)
(0.0003195472 -0.0007241496 2.23187e-05)
(0.0005541861 -0.0006891687 5.571256e-06)
(0.0007695154 -0.0006395856 1.966913e-06)
(0.000970258 -0.0005785028 -4.545212e-07)
(0.001149054 -0.0004953096 -1.602259e-06)
(0.001302319 -0.0003956914 -1.451636e-06)
(0.001422848 -0.000274781 -1.045194e-06)
(0.0001202656 -0.0009640071 1.502297e-05)
(0.0003540322 -0.0009558214 2.704846e-05)
(0.0005992426 -0.0009158883 5.709146e-06)
(0.000833158 -0.0008557723 5.178574e-06)
(0.001052591 -0.0007757512 1.490284e-06)
(0.001252859 -0.0006714356 4.428461e-07)
(0.001428579 -0.0005430473 5.627175e-07)
(0.001573429 -0.0003870704 2.598432e-07)
(0.000125627 -0.001215385 1.937397e-05)
(0.0003786872 -0.001210337 3.179885e-05)
(0.0006512587 -0.001163965 7.55913e-06)
(0.0009075837 -0.001092861 7.030951e-06)
(0.001153304 -0.00099768 2.824524e-06)
(0.00138137 -0.0008725721 1.637148e-06)
(0.0015868 -0.000717359 1.593764e-06)
(0.001763691 -0.0005269917 1.072239e-06)
(0.0001431764 -0.001500482 1.292921e-05)
(0.0004209742 -0.001487359 3.45702e-05)
(0.0007141558 -0.001437134 8.775342e-06)
(0.00099783 -0.001354959 7.98167e-06)
(0.001271586 -0.001247122 3.533238e-06)
(0.001532402 -0.001104206 2.153828e-06)
(0.001773602 -0.000925773 2.21805e-06)
(0.001991032 -0.0007038256 1.46629e-06)
(0.000158682 -0.001802117 1.29814e-05)
(0.0004634676 -0.00179062 2.761027e-05)
(0.0007811605 -0.001736 1.381235e-05)
(0.001096161 -0.001647307 7.831507e-06)
(0.00140272 -0.001529962 4.621761e-06)
(0.001701615 -0.00137326 2.584967e-06)
(0.001986028 -0.001175939 2.836579e-06)
(0.002251295 -0.0009269849 1.994855e-06)
(0.0001795186 -0.002122729 2.294261e-05)
(0.0005121857 -0.002120692 3.047449e-05)
(0.0008548274 -0.002063203 1.767234e-05)
(0.001202504 -0.001972221 8.348938e-06)
(0.001544234 -0.001849572 5.43637e-06)
(0.001885082 -0.001685014 2.809792e-06)
(0.002218295 -0.001476445 3.284651e-06)
(0.002541372 -0.001209425 2.405378e-06)
(0.0001920537 -0.002469527 2.661587e-05)
(0.0005508095 -0.002478897 2.758613e-05)
(0.0009265996 -0.002421717 1.908686e-05)
(0.00130847 -0.002332317 8.057168e-06)
(0.001688484 -0.002209513 5.867144e-06)
(0.00207327 -0.002043932 2.744076e-06)
(0.002459814 -0.001832387 3.247396e-06)
(0.00284273 -0.001558151 1.844886e-06)
(0.0002066374 -0.002854176 3.134391e-05)
(0.0005923562 -0.002869206 2.717045e-05)
(0.0009980117 -0.002813816 2.137349e-05)
(0.00141343 -0.002728864 8.056954e-06)
(0.001831201 -0.002611048 6.27547e-06)
(0.002260716 -0.002452428 2.823907e-06)
(0.002702254 -0.002248181 3.520945e-06)
(0.003151725 -0.001984128 2.764712e-06)
(0.0002163904 -0.003261961 2.085331e-05)
(0.0006285042 -0.003286812 2.63648e-05)
(0.00106315 -0.003235609 2.181963e-05)
(0.001510041 -0.00315992 8.095164e-06)
(0.001963584 -0.003052958 6.300213e-06)
(0.002434729 -0.002909832 2.478185e-06)
(0.002926441 -0.002724466 2.911036e-06)
(0.003437404 -0.002487585 8.322015e-07)
(0.0002254515 -0.003699605 -3.160777e-06)
(0.0006624927 -0.003734297 2.990734e-05)
(0.001120621 -0.003687401 1.999854e-05)
(0.001595026 -0.003623393 8.358809e-06)
(0.002080098 -0.003531647 5.929428e-06)
(0.002587973 -0.003410446 2.409848e-06)
(0.003123089 -0.003253237 2.693503e-06)
(0.003689225 -0.003055019 1.415543e-06)
(0.0002362337 -0.00413224 9.409501e-06)
(0.0006896636 -0.004198858 3.843521e-05)
(0.001169335 -0.004158922 1.932306e-05)
(0.001664922 -0.004112243 9.699493e-06)
(0.002175524 -0.004040422 5.811547e-06)
(0.002712142 -0.003947089 2.358602e-06)
(0.003280774 -0.003826103 2.339638e-06)
(0.003889178 -0.003676285 6.124016e-07)
(0.0002261143 -0.004620682 4.086344e-05)
(0.0006849563 -0.004685761 4.500959e-05)
(0.001202024 -0.004655875 1.26322e-05)
(0.001712872 -0.004622691 1.003188e-05)
(0.002244478 -0.004573472 4.845134e-06)
(0.002801546 -0.004510623 2.165086e-06)
(0.003393099 -0.004430654 1.88313e-06)
(0.00403015 -0.004334439 5.394221e-07)
(0.0002379866 -0.005140329 3.097513e-05)
(0.0007108905 -0.005185153 5.449406e-05)
(0.001226834 -0.005169117 1.485446e-05)
(0.001746879 -0.00514611 1.169538e-05)
(0.002287071 -0.005121294 5.249901e-06)
(0.002854472 -0.00509004 2.299898e-06)
(0.003456435 -0.005053121 1.810644e-06)
(0.004106811 -0.00501298 3.696704e-07)
(0.0002475147 -0.005618822 -4.080764e-06)
(0.0007290052 -0.00568761 2.974156e-05)
(0.001235396 -0.005679512 2.133706e-05)
(0.00176041 -0.005674952 9.147543e-06)
(0.002300295 -0.005673776 5.449563e-06)
(0.002869465 -0.00567511 1.827294e-06)
(0.003469898 -0.005681267 1.364905e-06)
(0.004119066 -0.005697358 5.91859e-08)
(0.0002484968 -0.00609734 4.335467e-05)
(0.0007237595 -0.006190019 4.685102e-05)
(0.001233358 -0.006187803 2.180017e-05)
(0.001752566 -0.006202376 1.12118e-05)
(0.002286903 -0.006222055 5.876941e-06)
(0.00284694 -0.006253841 2.062857e-06)
(0.003434143 -0.006298996 1.441601e-06)
(0.004066663 -0.006368018 1.156606e-08)
(0.0002425338 -0.006574595 5.30584e-05)
(0.0007104567 -0.006683979 5.0292e-05)
(0.001216264 -0.006692045 1.995513e-05)
(0.001726352 -0.006720585 1.143633e-05)
(0.002249027 -0.006759728 4.818351e-06)
(0.002792691 -0.00681821 1.499785e-06)
(0.003355862 -0.006898201 4.002977e-07)
(0.003957623 -0.007015466 -5.749199e-07)
(0.0002372278 -0.007064234 3.918024e-05)
(0.0006969911 -0.007171965 5.082172e-05)
(0.001189519 -0.007185688 1.903075e-05)
(0.001685235 -0.00722554 1.180805e-05)
(0.002189665 -0.007277427 5.228316e-06)
(0.00270882 -0.00735435 2.019731e-06)
(0.003237165 -0.007456237 1.005644e-06)
(0.003793191 -0.007609205 -3.996238e-07)
(0.0002274243 -0.007517511 3.858683e-05)
(0.0006750638 -0.007644933 5.329846e-05)
(0.001154941 -0.007663944 1.534992e-05)
(0.001635086 -0.007712843 1.098449e-05)
(0.002120723 -0.007773851 2.372832e-06)
(0.002614342 -0.00786327 2.595197e-07)
(0.00310136 -0.007979203 -2.018279e-06)
(0.003600337 -0.008155876 -1.524053e-06)
(0.0002209069 -0.00796987 4.331121e-05)
(0.0006538731 -0.008103852 5.229615e-05)
(0.0011135 -0.00812608 1.694929e-05)
(0.00157592 -0.008181435 1.262219e-05)
(0.002039854 -0.008240826 5.065279e-06)
(0.002503999 -0.008328135 2.609411e-06)
(0.002944933 -0.008426624 1.508073e-06)
(0.003374029 -0.008596674 -8.751941e-07)
(0.0002005524 -0.00836791 1.545987e-05)
(0.0006175722 -0.008541455 5.294694e-05)
(0.001068641 -0.008567582 7.082785e-06)
(0.001520932 -0.008631722 9.51986e-06)
(0.001974602 -0.008690434 -2.77047e-06)
(0.002429042 -0.008767362 -1.241242e-06)
(0.002833107 -0.008844944 -7.382925e-06)
(0.003201101 -0.008970897 -8.126982e-07)
(0.0001716937 -0.008830258 9.918735e-06)
(0.0005653076 -0.008975716 5.986981e-05)
(0.001014002 -0.009007897 3.77445e-06)
(0.001453756 -0.009078432 1.485995e-05)
(0.001904846 -0.009124232 6.86099e-06)
(0.002349986 -0.009182854 5.063129e-06)
(0.002741554 -0.009168068 5.935797e-06)
(0.003044036 -0.009201987 -3.049105e-06)
(0.0002705778 -2.243617e-05 -4.181858e-06)
(0.0005611551 -7.827603e-05 3.550234e-08)
(0.00066902 -6.195105e-05 -5.945976e-06)
(0.0008619419 -7.300498e-05 -3.345825e-06)
(0.0009945192 -5.821117e-05 -4.556075e-06)
(0.001118871 -4.770001e-05 -2.278626e-06)
(0.00120229 -3.111302e-05 -2.31501e-06)
(2.245278e-05 -0.0002752124 3.522233e-06)
(0.0003019341 -0.0002926932 8.215968e-07)
(0.0004994887 -0.0002904559 -9.368665e-07)
(0.0006981431 -0.0002387697 -2.02989e-06)
(0.0008699856 -0.0002264202 -4.200734e-07)
(0.001019598 -0.0001886109 -1.623953e-06)
(0.001145368 -0.0001505907 -7.921454e-07)
(0.001235766 -0.0001007198 -5.541019e-07)
(8.985887e-05 -0.0005768598 4.808112e-07)
(0.0003260262 -0.0004978097 1.836265e-06)
(0.0005183661 -0.0004709958 6.68347e-07)
(0.000724937 -0.0004390159 -8.902575e-07)
(0.0009100195 -0.0003959933 -3.369845e-07)
(0.001070165 -0.0003372146 -1.206216e-06)
(0.001207282 -0.0002673167 -3.999134e-07)
(0.001309247 -0.0001817554 -2.895207e-07)
(8.665249e-05 -0.0007254906 9.419554e-06)
(0.0003136519 -0.0007270296 3.964286e-06)
(0.000553274 -0.0006899963 2.735398e-06)
(0.0007689508 -0.0006397883 9.671075e-07)
(0.0009707273 -0.0005778935 9.717912e-07)
(0.001148844 -0.0004945908 9.921382e-08)
(0.0013022 -0.0003949323 4.878065e-07)
(0.001422601 -0.0002738333 4.937503e-07)
(0.0001133385 -0.0009830849 8.52556e-07)
(0.0003532147 -0.0009589216 2.146187e-06)
(0.0005999525 -0.0009175416 1.822996e-06)
(0.0008332216 -0.0008572419 1.107588e-06)
(0.001053657 -0.0007763539 1.113399e-06)
(0.001253245 -0.0006716599 3.96726e-07)
(0.001429032 -0.0005428221 9.169061e-07)
(0.001574114 -0.0003864275 7.998495e-07)
(0.0001168635 -0.00122391 2.642924e-06)
(0.0003771394 -0.001209813 3.31296e-06)
(0.0006516291 -0.001163411 3.266805e-06)
(0.000907173 -0.00109357 2.109533e-06)
(0.001154383 -0.0009977073 2.06394e-06)
(0.001381761 -0.0008725284 1.190422e-06)
(0.001587563 -0.000716775 1.703154e-06)
(0.001765058 -0.000525901 1.497186e-06)
(0.0001300435 -0.001507339 6.359795e-06)
(0.0004141335 -0.001485125 3.595535e-06)
(0.0007140307 -0.001436024 4.052656e-06)
(0.0009966217 -0.001355715 2.331102e-06)
(0.001272754 -0.001247311 2.380848e-06)
(0.001532927 -0.001104448 1.369305e-06)
(0.001774715 -0.0009253651 2.056526e-06)
(0.001993212 -0.0007028469 1.789381e-06)
(0.0001423582 -0.001810251 1.320467e-05)
(0.0004501992 -0.001786668 4.378021e-06)
(0.0007793273 -0.001734527 5.740566e-06)
(0.001093843 -0.001647738 2.745453e-06)
(0.001403691 -0.001530063 3.000262e-06)
(0.001702005 -0.001373466 1.6842e-06)
(0.001987304 -0.001175481 2.519762e-06)
(0.002253991 -0.000925769 2.220157e-06)
(0.0001574378 -0.002142099 2.086404e-05)
(0.0004921497 -0.002117734 5.925567e-06)
(0.0008514414 -0.002062986 7.252842e-06)
(0.001199148 -0.001972942 3.0462e-06)
(0.001544992 -0.001850004 3.360606e-06)
(0.001885456 -0.001685496 1.779592e-06)
(0.002219901 -0.001476379 2.842357e-06)
(0.002544874 -0.001208771 2.62843e-06)
(0.0001707329 -0.002499462 1.90916e-05)
(0.0005320611 -0.002476876 5.291709e-06)
(0.0009226448 -0.002422487 7.471727e-06)
(0.001304937 -0.002333368 2.920576e-06)
(0.001689053 -0.002210203 3.523613e-06)
(0.002073399 -0.002044519 1.668515e-06)
(0.002461185 -0.001832518 2.749822e-06)
(0.002845688 -0.001557455 2.201299e-06)
(0.0001841296 -0.002886976 2.001041e-05)
(0.0005721937 -0.002867573 4.782157e-06)
(0.0009935383 -0.002814875 7.660756e-06)
(0.001409615 -0.002730151 2.613457e-06)
(0.001831787 -0.002611959 3.480908e-06)
(0.00226089 -0.002453263 1.546382e-06)
(0.002704107 -0.002248728 2.831633e-06)
(0.003155554 -0.001984223 2.789689e-06)
(0.0001945032 -0.003299558 1.894393e-05)
(0.0006075278 -0.003286245 3.901136e-06)
(0.00105874 -0.003237348 7.541118e-06)
(0.00150615 -0.003161579 2.379996e-06)
(0.001964016 -0.003054188 3.351441e-06)
(0.002434519 -0.002910843 1.139068e-06)
(0.00292761 -0.002725422 2.189581e-06)
(0.003439508 -0.002488324 1.297217e-06)
(0.0002018927 -0.003745992 1.830787e-05)
(0.0006379235 -0.00373381 2.428784e-06)
(0.001116985 -0.003689826 6.304491e-06)
(0.00159126 -0.003625104 1.728396e-06)
(0.002080812 -0.003532999 2.791049e-06)
(0.002587808 -0.003411447 7.652117e-07)
(0.003124446 -0.003254137 1.797848e-06)
(0.003691494 -0.003055755 1.336068e-06)
(0.000211442 -0.004212623 1.895223e-05)
(0.0006677208 -0.004200378 3.916694e-06)
(0.001166366 -0.004164496 6.388896e-06)
(0.001661709 -0.004114127 2.081801e-06)
(0.002176228 -0.00404209 2.621478e-06)
(0.002711881 -0.003948074 5.437022e-07)
(0.00328161 -0.003827237 1.284717e-06)
(0.003890377 -0.003677375 5.275713e-07)
(0.0002183226 -0.004689862 -7.439735e-06)
(0.0006906571 -0.004684762 7.54213e-07)
(0.001202304 -0.004658784 2.364731e-06)
(0.001712684 -0.004623974 1.17221e-06)
(0.002245751 -0.004574536 1.674021e-06)
(0.002801546 -0.00451139 3.220738e-08)
(0.00339394 -0.004431464 6.764332e-07)
(0.004031099 -0.004335289 8.417941e-08)
(0.0002212983 -0.005173281 4.990107e-06)
(0.0007036251 -0.005175787 2.908086e-06)
(0.001226505 -0.005165545 4.15492e-06)
(0.001745282 -0.005146063 1.675882e-06)
(0.002288063 -0.005121411 1.812813e-06)
(0.002854212 -0.005090547 -6.473193e-08)
(0.003456916 -0.005053952 3.669365e-07)
(0.00410726 -0.005013859 -2.519097e-07)
(0.0002222225 -0.005676466 1.909166e-05)
(0.0007034797 -0.005678617 2.229067e-06)
(0.001231826 -0.005678075 5.671279e-06)
(0.001756471 -0.005674769 1.088134e-06)
(0.002300892 -0.005673839 1.539126e-06)
(0.002868637 -0.005675497 -6.32579e-07)
(0.003470223 -0.005681812 -2.861293e-07)
(0.004119177 -0.005698156 -9.082247e-07)
(0.0002253293 -0.006181179 1.554271e-05)
(0.0007077598 -0.006185911 4.820811e-06)
(0.001230346 -0.006190339 5.978259e-06)
(0.001749475 -0.006203079 1.673876e-06)
(0.002287309 -0.006223077 1.603241e-06)
(0.002846191 -0.006254604 -6.480289e-07)
(0.003434167 -0.006300244 -4.866513e-07)
(0.004066485 -0.006369186 -1.159588e-06)
(0.0002231149 -0.006663473 1.033927e-05)
(0.0007005318 -0.006677985 3.949615e-06)
(0.001214731 -0.00669301 4.063321e-06)
(0.001723967 -0.006720918 7.424153e-07)
(0.002249649 -0.006760108 1.298594e-07)
(0.002791718 -0.006818612 -1.850595e-06)
(0.003355829 -0.006898786 -1.980539e-06)
(0.00395731 -0.007016535 -2.419067e-06)
(0.0002167303 -0.007145929 1.072987e-05)
(0.000684536 -0.00716581 3.932961e-06)
(0.001187743 -0.007187296 4.074438e-06)
(0.001682886 -0.007226854 9.962668e-07)
(0.002190172 -0.007279533 4.50856e-07)
(0.002708029 -0.00735659 -1.486993e-06)
(0.003236672 -0.00745979 -1.625963e-06)
(0.003792274 -0.007612361 -2.432658e-06)
(0.0002093447 -0.007616603 4.793436e-06)
(0.0006657274 -0.00763805 1.176077e-06)
(0.001154172 -0.007665061 4.741411e-07)
(0.001632435 -0.00771308 -1.670175e-06)
(0.002120662 -0.007773922 -3.32356e-06)
(0.002612152 -0.007863677 -4.760502e-06)
(0.003100605 -0.007979303 -6.033829e-06)
(0.003599762 -0.008157732 -5.554381e-06)
(0.0002017712 -0.008070469 7.961779e-06)
(0.0006431596 -0.008098235 2.301486e-06)
(0.001113365 -0.008129875 1.647104e-06)
(0.001574937 -0.008185035 2.448196e-08)
(0.002040499 -0.008247761 -7.457755e-07)
(0.002503462 -0.008335267 -2.542471e-06)
(0.002943228 -0.00843899 -2.428632e-06)
(0.003371021 -0.008606151 -4.525575e-06)
(0.0001879791 -0.008503887 -5.395372e-06)
(0.0006135737 -0.00853638 -2.156021e-06)
(0.001068118 -0.008570592 -4.823498e-06)
(0.001515583 -0.00863178 -5.340112e-06)